! 2-Port simulation of a 2.4 GHz amplifier, including noise parameters
! Port 1: input
! Port 2: output
# HZ S MA R 50
1e+07       0.99997        -16.866      0.0050414          62.42       8.03e-08        -27.809        0.94286        -16.236
2e+07       0.99961         -33.42        0.03487         37.963     1.1108e-06        -52.149        0.81082        -29.098
3e+07       0.99813        -49.386       0.097413         17.514     4.6548e-06        -72.558        0.66636        -37.436
4e+07        0.9946        -64.552        0.18857          0.477     1.2014e-05        -89.574        0.54128        -41.572
5e+07       0.98816        -78.781        0.30079        -13.983     2.3955e-05        -104.02        0.44324        -42.102
6e+07       0.97831        -92.004        0.42653        -26.511     4.0763e-05        -116.54        0.37122        -39.576
7e+07       0.96489        -104.21        0.55923         -37.54     6.2353e-05        -127.56        0.32213         -34.66
8e+07       0.94813        -115.41        0.69362        -47.363     8.8385e-05        -137.38        0.29238        -28.298
9e+07        0.9285        -125.68         0.8257        -56.183     0.00011837         -146.2        0.27792        -21.604
1e+08       0.90656        -135.07        0.95265         -64.15     0.00015174        -154.16        0.27447        -15.506
1.1e+08       0.88294        -143.65         1.0727        -71.378     0.00018794        -161.38        0.27818        -10.491
1.2e+08       0.85822        -151.51         1.1847        -77.961     0.00022644        -167.96        0.28605        -6.6476
1.3e+08        0.8329        -158.71         1.2883        -83.975     0.00026677        -173.97        0.29603        -3.8433
1.4e+08       0.80741        -165.31         1.3836        -89.486     0.00030853        -179.48        0.30682        -1.8785
1.5e+08       0.78208        -171.38         1.4707        -94.551     0.00035138         175.46        0.31766       -0.56085
1.6e+08       0.75718        -176.99         1.5501        -99.218     0.00039504         170.79        0.32811        0.26877
1.7e+08       0.73287         177.84         1.6224        -103.53     0.00043931         166.48        0.33796        0.73359
1.8e+08       0.70931         173.04         1.6881        -107.53     0.00048399         162.49         0.3471        0.92629
1.9e+08       0.68657         168.59         1.7478        -111.24     0.00052894         158.78        0.35552        0.91578
2e+08       0.66471         164.44         1.8021         -114.7     0.00057408         155.32        0.36321        0.75317
2.1e+08       0.64374         160.56         1.8515        -117.93      0.0006193         152.09        0.37022        0.47644
2.2e+08       0.62367         156.93         1.8964        -120.95     0.00066454         149.08         0.3766        0.11392
2.3e+08        0.6045         153.53         1.9374        -123.78     0.00070977         146.24        0.38239        -0.3131
2.4e+08        0.5862         150.32         1.9748        -126.45     0.00075493         143.58        0.38765        -0.7886
2.5e+08       0.56875          147.3         2.0091        -128.96     0.00080002         141.07        0.39242        -1.3004
2.6e+08        0.5521         144.44         2.0404        -131.33     0.00084501          138.7        0.39675        -1.8392
2.7e+08       0.53623         141.74         2.0692        -133.57     0.00088988         136.46        0.40068        -2.3979
2.8e+08        0.5211         139.17         2.0957         -135.7     0.00093464         134.33        0.40425        -2.9711
2.9e+08       0.50668         136.73           2.12        -137.72     0.00097927         132.31        0.40749        -3.5545
3e+08       0.49292          134.4         2.1425        -139.65      0.0010238         130.39        0.41043         -4.145
3.1e+08       0.47979         132.17         2.1633        -141.48      0.0010682         128.56        0.41311        -4.7399
3.2e+08       0.46726         130.04         2.1825        -143.23      0.0011124         126.81        0.41553        -5.3373
3.3e+08       0.45529         128.01         2.2004        -144.91      0.0011566         125.14        0.41774        -5.9358
3.4e+08       0.44386         126.05          2.217        -146.51      0.0012006         123.53        0.41974        -6.5341
3.5e+08       0.43292         124.17         2.2325        -148.05      0.0012446            122        0.42156        -7.1315
3.6e+08       0.42247         122.36         2.2469        -149.53      0.0012884         120.52         0.4232        -7.7272
3.7e+08       0.41246         120.61         2.2604        -150.95      0.0013321          119.1        0.42469        -8.3207
3.8e+08       0.40287         118.92          2.273        -152.32      0.0013758         117.73        0.42603        -8.9118
3.9e+08       0.39368         117.29         2.2848        -153.65      0.0014193         116.41        0.42724           -9.5
4e+08       0.38487         115.71         2.2959        -154.92      0.0014628         115.13        0.42833        -10.085
4.1e+08       0.37642         114.18         2.3064        -156.16      0.0015062          113.9        0.42931        -10.667
4.2e+08        0.3683         112.69         2.3162        -157.36      0.0015495          112.7        0.43018        -11.246
4.3e+08       0.36051         111.24         2.3255        -158.51      0.0015928         111.55        0.43096        -11.822
4.4e+08       0.35301         109.84         2.3343        -159.64       0.001636         110.42        0.43164        -12.395
4.5e+08       0.34581         108.47         2.3426        -160.73      0.0016791         109.33        0.43224        -12.965
4.6e+08       0.33887         107.13         2.3505        -161.79      0.0017222         108.27        0.43277        -13.531
4.7e+08       0.33219         105.83          2.358        -162.82      0.0017653         107.24        0.43321        -14.094
4.8e+08       0.32576         104.55         2.3651        -163.83      0.0018083         106.24        0.43359        -14.655
4.9e+08       0.31956         103.31         2.3719        -164.81      0.0018512         105.26         0.4339        -15.212
5e+08       0.31358         102.09         2.3784        -165.76      0.0018942         104.31        0.43416        -15.767
5.1e+08       0.30782         100.89         2.3846         -166.7      0.0019371         103.38        0.43435        -16.319
5.2e+08       0.30225          99.72         2.3905        -167.61      0.0019799         102.47        0.43449        -16.869
5.3e+08       0.29687         98.571         2.3961         -168.5      0.0020228         101.58        0.43458        -17.416
5.4e+08       0.29167         97.442         2.4016        -169.37      0.0020656         100.71        0.43461         -17.96
5.5e+08       0.28665         96.333         2.4068        -170.23      0.0021085         99.853        0.43461        -18.503
5.6e+08        0.2818         95.242         2.4118        -171.06      0.0021513         99.018        0.43455        -19.043
5.7e+08        0.2771         94.168         2.4166        -171.88      0.0021941           98.2        0.43446        -19.581
5.8e+08       0.27255         93.111         2.4213        -172.69      0.0022369         97.397        0.43432        -20.116
5.9e+08       0.26815         92.069         2.4258        -173.48      0.0022796         96.608        0.43415         -20.65
6e+08       0.26389         91.042         2.4301        -174.25      0.0023224         95.834        0.43394        -21.182
6.1e+08       0.25976         90.028         2.4343        -175.02      0.0023652         95.074        0.43369        -21.713
6.2e+08       0.25575         89.027         2.4384        -175.76       0.002408         94.326        0.43341        -22.241
6.3e+08       0.25187         88.039         2.4423         -176.5      0.0024508          93.59        0.43309        -22.768
6.4e+08       0.24811         87.063         2.4461        -177.23      0.0024936         92.866        0.43274        -23.294
6.5e+08       0.24445         86.097         2.4499        -177.94      0.0025364         92.153        0.43236        -23.818
6.6e+08       0.24091         85.142         2.4535        -178.65      0.0025792         91.451        0.43196        -24.341
6.7e+08       0.23747         84.196          2.457        -179.34      0.0026221         90.758        0.43152        -24.862
6.8e+08       0.23413          83.26         2.4604         179.98      0.0026649         90.076        0.43105        -25.382
6.9e+08       0.23088         82.333         2.4638          179.3      0.0027078         89.402        0.43056        -25.901
7e+08       0.22773         81.414         2.4671         178.63      0.0027507         88.738        0.43004        -26.419
7.1e+08       0.22466         80.503         2.4703         177.98      0.0027936         88.082         0.4295        -26.935
7.2e+08       0.22168         79.599         2.4734         177.33      0.0028365         87.434        0.42893        -27.451
7.3e+08       0.21879         78.703         2.4765         176.69      0.0028795         86.794        0.42833        -27.966
7.4e+08       0.21597         77.813         2.4795         176.05      0.0029225         86.161        0.42771         -28.48
7.5e+08       0.21324          76.93         2.4824         175.42      0.0029655         85.536        0.42707        -28.993
7.6e+08       0.21057         76.052         2.4853          174.8      0.0030086         84.917        0.42641        -29.505
7.7e+08       0.20798         75.181         2.4882         174.19      0.0030516         84.305        0.42572        -30.017
7.8e+08       0.20546         74.315          2.491         173.58      0.0030948         83.699        0.42501        -30.528
7.9e+08         0.203         73.454         2.4937         172.98      0.0031379           83.1        0.42428        -31.038
8e+08       0.20061         72.597         2.4964         172.39      0.0031811         82.506        0.42352        -31.548
8.1e+08       0.19829         71.746         2.4991          171.8      0.0032243         81.918        0.42275        -32.057
8.2e+08       0.19602         70.899         2.5018         171.21      0.0032675         81.335        0.42195        -32.566
8.3e+08       0.19382         70.056         2.5044         170.63      0.0033108         80.757        0.42114        -33.074
8.4e+08       0.19167         69.217         2.5069         170.06      0.0033542         80.185         0.4203        -33.582
8.5e+08       0.18957         68.381         2.5095         169.49      0.0033975         79.617        0.41945         -34.09
8.6e+08       0.18754         67.549          2.512         168.93       0.003441         79.054        0.41857        -34.597
8.7e+08       0.18555         66.721         2.5145         168.37      0.0034844         78.495        0.41768        -35.104
8.8e+08       0.18362         65.896         2.5169         167.81      0.0035279         77.941        0.41677         -35.61
8.9e+08       0.18173         65.074         2.5194         167.26      0.0035715         77.391        0.41583        -36.117
9e+08        0.1799         64.254         2.5218         166.71       0.003615         76.844        0.41488        -36.623
9.1e+08       0.17811         63.438         2.5242         166.17      0.0036587         76.302        0.41391        -37.129
9.2e+08       0.17636         62.624         2.5266         165.63      0.0037024         75.763        0.41292        -37.635
9.3e+08       0.17467         61.813         2.5289         165.09      0.0037461         75.228        0.41192        -38.141
9.4e+08       0.17301         61.004         2.5313         164.56      0.0037899         74.696        0.41089        -38.647
9.5e+08        0.1714         60.197         2.5336         164.03      0.0038337         74.168        0.40985        -39.153
9.6e+08       0.16983         59.393         2.5359          163.5      0.0038776         73.643        0.40879        -39.659
9.7e+08        0.1683          58.59         2.5382         162.98      0.0039216         73.121        0.40771        -40.165
9.8e+08        0.1668          57.79         2.5405         162.45      0.0039655         72.601        0.40661        -40.671
9.9e+08       0.16535         56.991         2.5427         161.94      0.0040096         72.085         0.4055        -41.177
1e+09       0.16393         56.195          2.545         161.42      0.0040537         71.572        0.40437        -41.683
1.01e+09       0.16255           55.4         2.5472         160.91      0.0040978         71.061        0.40322         -42.19
1.02e+09       0.16121         54.607         2.5495          160.4       0.004142         70.553        0.40205        -42.697
1.03e+09        0.1599         53.816         2.5517         159.89      0.0041863         70.047        0.40087        -43.204
1.04e+09       0.15863         53.026         2.5539         159.39      0.0042306         69.544        0.39967        -43.711
1.05e+09       0.15738         52.238         2.5561         158.89       0.004275         69.043        0.39845        -44.218
1.06e+09       0.15618         51.451         2.5583         158.39      0.0043194         68.544        0.39721        -44.726
1.07e+09         0.155         50.666         2.5605         157.89      0.0043639         68.048        0.39596        -45.234
1.08e+09       0.15385         49.883         2.5627         157.39      0.0044085         67.553        0.39469        -45.743
1.09e+09       0.15274         49.101         2.5649          156.9      0.0044531         67.061        0.39341        -46.252
1.1e+09       0.15165          48.32         2.5671          156.4      0.0044977          66.57         0.3921        -46.761
1.11e+09        0.1506         47.541         2.5692         155.91      0.0045425         66.082        0.39078        -47.271
1.12e+09       0.14957         46.764         2.5714         155.43      0.0045872         65.595        0.38945        -47.781
1.13e+09       0.14857         45.988         2.5736         154.94      0.0046321          65.11        0.38809        -48.292
1.14e+09        0.1476         45.213         2.5757         154.46       0.004677         64.626        0.38672        -48.803
1.15e+09       0.14666         44.439         2.5779         153.97       0.004722         64.145        0.38534        -49.315
1.16e+09       0.14574         43.668           2.58         153.49       0.004767         63.665        0.38393        -49.827
1.17e+09       0.14485         42.897         2.5822         153.01      0.0048121         63.186        0.38251         -50.34
1.18e+09       0.14398         42.128         2.5843         152.53      0.0048572         62.709        0.38108        -50.854
1.19e+09       0.14314         41.361         2.5865         152.05      0.0049025         62.233        0.37962        -51.368
1.2e+09       0.14232         40.595         2.5886         151.58      0.0049477         61.759        0.37816        -51.883
1.21e+09       0.14153          39.83         2.5907          151.1      0.0049931         61.286        0.37667        -52.399
1.22e+09       0.14076         39.067         2.5929         150.63      0.0050385         60.814        0.37517        -52.915
1.23e+09       0.14002         38.306          2.595         150.16      0.0050839         60.344        0.37365        -53.432
1.24e+09        0.1393         37.546         2.5971         149.69      0.0051295         59.874        0.37211         -53.95
1.25e+09        0.1386         36.788         2.5992         149.22      0.0051751         59.406        0.37056        -54.469
1.26e+09       0.13792         36.031         2.6013         148.75      0.0052207         58.939        0.36899        -54.988
1.27e+09       0.13726         35.277         2.6035         148.28      0.0052664         58.473         0.3674        -55.509
1.28e+09       0.13663         34.524         2.6056         147.81      0.0053122         58.008         0.3658         -56.03
1.29e+09       0.13601         33.772         2.6077         147.35      0.0053581         57.544        0.36418        -56.552
1.3e+09       0.13542         33.023         2.6098         146.88       0.005404         57.081        0.36254        -57.076
1.31e+09       0.13485         32.275         2.6119         146.42        0.00545         56.618        0.36089          -57.6
1.32e+09       0.13429          31.53          2.614         145.96       0.005496         56.157        0.35922        -58.125
1.33e+09       0.13376         30.786         2.6161          145.5      0.0055421         55.697        0.35754        -58.651
1.34e+09       0.13325         30.044         2.6182         145.03      0.0055883         55.237        0.35584        -59.179
1.35e+09       0.13275         29.304         2.6203         144.57      0.0056345         54.778        0.35412        -59.707
1.36e+09       0.13227         28.567         2.6224         144.11      0.0056808          54.32        0.35238        -60.237
1.37e+09       0.13182         27.831         2.6245         143.66      0.0057271         53.862        0.35063        -60.767
1.38e+09       0.13137         27.098         2.6266          143.2      0.0057735         53.405        0.34886        -61.299
1.39e+09       0.13095         26.367         2.6287         142.74        0.00582         52.949        0.34708        -61.832
1.4e+09       0.13055         25.638         2.6308         142.28      0.0058666         52.494        0.34527        -62.366
1.41e+09       0.13016         24.911         2.6329         141.83      0.0059132         52.039        0.34346        -62.902
1.42e+09       0.12979         24.187          2.635         141.37      0.0059598         51.584        0.34162        -63.439
1.43e+09       0.12943         23.466         2.6371         140.91      0.0060065         51.131        0.33977        -63.977
1.44e+09       0.12909         22.746         2.6392         140.46      0.0060533         50.677         0.3379        -64.517
1.45e+09       0.12877          22.03         2.6413         140.01      0.0061002         50.225        0.33602        -65.058
1.46e+09       0.12846         21.316         2.6433         139.55      0.0061471         49.772        0.33412          -65.6
1.47e+09       0.12817         20.604         2.6454          139.1       0.006194          49.32         0.3322        -66.144
1.48e+09       0.12789         19.895         2.6475         138.65      0.0062411         48.869        0.33026         -66.69
1.49e+09       0.12763         19.189         2.6496         138.19      0.0062881         48.418        0.32831        -67.237
1.5e+09       0.12739         18.486         2.6516         137.74      0.0063353         47.967        0.32635        -67.786
1.51e+09       0.12715         17.785         2.6537         137.29      0.0063825         47.517        0.32436        -68.336
1.52e+09       0.12694         17.088         2.6558         136.84      0.0064297         47.067        0.32236        -68.888
1.53e+09       0.12673         16.393         2.6578         136.39       0.006477         46.617        0.32034        -69.442
1.54e+09       0.12654         15.701         2.6599         135.93      0.0065244         46.167        0.31831        -69.998
1.55e+09       0.12637         15.012         2.6619         135.48      0.0065718         45.718        0.31626        -70.555
1.56e+09        0.1262         14.326          2.664         135.03      0.0066193          45.27        0.31419        -71.114
1.57e+09       0.12605         13.644          2.666         134.58      0.0066668         44.821        0.31211        -71.676
1.58e+09       0.12592         12.964          2.668         134.13      0.0067144         44.372        0.31001        -72.239
1.59e+09       0.12579         12.288         2.6701         133.68      0.0067621         43.924        0.30789        -72.804
1.6e+09       0.12568         11.614         2.6721         133.23      0.0068097         43.476        0.30576        -73.371
1.61e+09       0.12558         10.944         2.6741         132.79      0.0068575         43.028        0.30361        -73.941
1.62e+09       0.12549         10.278         2.6761         132.34      0.0069053         42.581        0.30144        -74.513
1.63e+09       0.12541         9.6143         2.6781         131.89      0.0069531         42.133        0.29926        -75.086
1.64e+09       0.12535         8.9542         2.6801         131.44       0.007001         41.686        0.29706        -75.663
1.65e+09        0.1253         8.2974         2.6821         130.99      0.0070489         41.239        0.29484        -76.241
1.66e+09       0.12525         7.6441         2.6841         130.54      0.0070969         40.791        0.29261        -76.822
1.67e+09       0.12522         6.9941         2.6861         130.09      0.0071449         40.344        0.29036        -77.406
1.68e+09        0.1252         6.3477         2.6881         129.64       0.007193         39.897         0.2881        -77.992
1.69e+09       0.12519         5.7047           2.69         129.19      0.0072411          39.45        0.28582        -78.581
1.7e+09        0.1252         5.0652          2.692         128.75      0.0072893         39.003        0.28352        -79.172
1.71e+09       0.12521         4.4292         2.6939          128.3      0.0073374         38.556        0.28121        -79.767
1.72e+09       0.12523         3.7968         2.6959         127.85      0.0073857          38.11        0.27888        -80.364
1.73e+09       0.12526         3.1679         2.6978          127.4      0.0074339         37.663        0.27653        -80.964
1.74e+09        0.1253         2.5426         2.6997         126.95      0.0074823         37.216        0.27417        -81.567
1.75e+09       0.12535         1.9209         2.7017          126.5      0.0075306         36.769        0.27179        -82.174
1.76e+09       0.12541         1.3028         2.7036         126.06       0.007579         36.322         0.2694        -82.783
1.77e+09       0.12548        0.68838         2.7055         125.61      0.0076274         35.875        0.26699        -83.396
1.78e+09       0.12556       0.077574         2.7074         125.16      0.0076758         35.428        0.26456        -84.013
1.79e+09       0.12565       -0.52958         2.7092         124.71      0.0077243         34.981        0.26212        -84.633
1.8e+09       0.12574        -1.1331         2.7111         124.26      0.0077728         34.534        0.25967        -85.257
1.81e+09       0.12585        -1.7329          2.713         123.81      0.0078213         34.087        0.25719        -85.884
1.82e+09       0.12596         -2.329         2.7148         123.36      0.0078699          33.64         0.2547        -86.516
1.83e+09       0.12608        -2.9215         2.7166         122.92      0.0079185         33.192         0.2522        -87.151
1.84e+09       0.12621        -3.5102         2.7185         122.47      0.0079671         32.745        0.24968        -87.791
1.85e+09       0.12635        -4.0953         2.7203         122.02      0.0080157         32.297        0.24715        -88.435
1.86e+09       0.12649        -4.6767         2.7221         121.57      0.0080644         31.849         0.2446        -89.083
1.87e+09       0.12664        -5.2543         2.7238         121.12       0.008113         31.402        0.24203        -89.737
1.88e+09        0.1268        -5.8283         2.7256         120.67      0.0081617         30.954        0.23945        -90.395
1.89e+09       0.12697        -6.3986         2.7274         120.22      0.0082104         30.506        0.23686        -91.057
1.9e+09       0.12715        -6.9652         2.7291         119.77      0.0082591         30.057        0.23425        -91.726
1.91e+09       0.12733        -7.5281         2.7308         119.32      0.0083078         29.609        0.23163        -92.399
1.92e+09       0.12752        -8.0873         2.7325         118.87      0.0083566         29.161        0.22899        -93.078
1.93e+09       0.12771        -8.6428         2.7342         118.42      0.0084053         28.712        0.22634        -93.763
1.94e+09       0.12791        -9.1946         2.7359         117.97      0.0084541         28.263        0.22367        -94.454
1.95e+09       0.12812        -9.7428         2.7376         117.52      0.0085028         27.814        0.22099        -95.151
1.96e+09       0.12833        -10.287         2.7392         117.07      0.0085516         27.365         0.2183        -95.854
1.97e+09       0.12856        -10.828         2.7409         116.62      0.0086003         26.915        0.21559        -96.565
1.98e+09       0.12878        -11.365         2.7425         116.17      0.0086491         26.466        0.21287        -97.282
1.99e+09       0.12902        -11.899         2.7441         115.71      0.0086978         26.016        0.21014        -98.006
2e+09       0.12925        -12.429         2.7457         115.26      0.0087466         25.566        0.20739        -98.739
2.01e+09        0.1295        -12.955         2.7472         114.81      0.0087953         25.116        0.20464        -99.479
2.02e+09       0.12975        -13.478         2.7488         114.36       0.008844         24.665        0.20187        -100.23
2.03e+09          0.13        -13.998         2.7503         113.91      0.0088927         24.215        0.19908        -100.98
2.04e+09       0.13026        -14.513         2.7518         113.45      0.0089414         23.764        0.19629        -101.75
2.05e+09       0.13053        -15.025         2.7533            113      0.0089901         23.313        0.19348        -102.53
2.06e+09        0.1308        -15.534         2.7548         112.55      0.0090388         22.862        0.19066        -103.31
2.07e+09       0.13108        -16.039         2.7562          112.1      0.0090874          22.41        0.18784        -104.11
2.08e+09       0.13136        -16.541         2.7576         111.64       0.009136         21.958          0.185        -104.92
2.09e+09       0.13165        -17.039          2.759         111.19      0.0091846         21.507        0.18215        -105.73
2.1e+09       0.13194        -17.533         2.7604         110.74      0.0092332         21.054        0.17929        -106.56
2.11e+09       0.13223        -18.025         2.7618         110.28      0.0092817         20.602        0.17642        -107.41
2.12e+09       0.13253        -18.512         2.7631         109.83      0.0093302         20.149        0.17355        -108.26
2.13e+09       0.13283        -18.997         2.7644         109.37      0.0093787         19.696        0.17066        -109.13
2.14e+09       0.13314        -19.478         2.7657         108.92      0.0094271         19.243        0.16777        -110.02
2.15e+09       0.13346        -19.955          2.767         108.46      0.0094755          18.79        0.16487        -110.92
2.16e+09       0.13377         -20.43         2.7682         108.01      0.0095239         18.336        0.16197        -111.84
2.17e+09       0.13409        -20.901         2.7694         107.55      0.0095722         17.882        0.15905        -112.77
2.18e+09       0.13442        -21.368         2.7706          107.1      0.0096204         17.428        0.15614        -113.73
2.19e+09       0.13474        -21.833         2.7718         106.64      0.0096686         16.974        0.15322         -114.7
2.2e+09       0.13508        -22.294         2.7729         106.19      0.0097168         16.519        0.15029        -115.69
2.21e+09       0.13541        -22.752         2.7741         105.73      0.0097649         16.065        0.14737        -116.71
2.22e+09       0.13575        -23.206         2.7752         105.27      0.0098129          15.61        0.14444        -117.74
2.23e+09       0.13609        -23.658         2.7762         104.82      0.0098609         15.154        0.14151        -118.81
2.24e+09       0.13644        -24.106         2.7773         104.36      0.0099088         14.699        0.13858         -119.9
2.25e+09       0.13679        -24.552         2.7783          103.9      0.0099566         14.243        0.13565        -121.01
2.26e+09       0.13714        -24.994         2.7792         103.44       0.010004         13.787        0.13273        -122.16
2.27e+09       0.13749        -25.433         2.7802         102.99       0.010052         13.331        0.12981        -123.34
2.28e+09       0.13785        -25.868         2.7811         102.53         0.0101         12.874        0.12689        -124.55
2.29e+09       0.13821        -26.301          2.782         102.07       0.010147         12.417        0.12398         -125.8
2.3e+09       0.13858        -26.731         2.7829         101.61       0.010195          11.96        0.12109        -127.09
2.31e+09       0.13894        -27.158         2.7837         101.15       0.010242         11.503         0.1182        -128.42
2.32e+09       0.13931        -27.582         2.7845         100.69       0.010289         11.046        0.11533        -129.79