! 2-Port simulation of an asymmetrically matched attenuator
# GHz S MA R 50
0                      0.1088178               0        0.4560845               0        0.4560796               0       0.02551069               0
0.012                  0.1088176      -0.4203594        0.4560844       -0.507408        0.4560795      -0.5074018       0.02551043      -0.4621141
0.024                  0.1088171      -0.8407211        0.4560842       -1.014816        0.4560793       -1.014804       0.02550966      -0.9242388
0.036                  0.1088161       -1.261087        0.4560839       -1.522224        0.4560789       -1.522205       0.02550837       -1.386385
0.048                  0.1088149       -1.681459        0.4560833       -2.029631        0.4560784       -2.029607       0.02550656       -1.848563
0.06                   0.1088133        -2.10184        0.4560826       -2.537039        0.4560777       -2.537007       0.02550424       -2.310783
0.072                  0.1088113       -2.522232        0.4560819       -3.044445        0.4560769       -3.044408       0.02550141       -2.773057
0.084                  0.1088089       -2.942637        0.4560809       -3.551851        0.4560759       -3.551808       0.02549806       -3.235395
0.096                  0.1088062       -3.363057        0.4560797       -4.059257        0.4560748       -4.059208       0.02549419       -3.697807
0.108                  0.1088031       -3.783494        0.4560785       -4.566663        0.4560736       -4.566606       0.02548981       -4.160305
0.12                   0.1087997        -4.20395        0.4560771       -5.074066        0.4560721       -5.074005       0.02548492       -4.622898
0.132                  0.1087959       -4.624428        0.4560755        -5.58147        0.4560706       -5.581402       0.02547951       -5.085598
0.144                  0.1087917       -5.044931        0.4560738       -6.088872        0.4560689       -6.088798       0.02547359       -5.548416
0.156                  0.1087872       -5.465458         0.456072       -6.596274         0.456067       -6.596194       0.02546715       -6.011362
0.168                  0.1087823       -5.886014        0.4560699       -7.103675        0.4560651       -7.103588        0.0254602       -6.474445
0.18                   0.1087771       -6.306599        0.4560678       -7.611074        0.4560629       -7.610981       0.02545273        -6.93768
0.192                  0.1087714       -6.727219        0.4560655       -8.118473        0.4560606       -8.118374       0.02544476       -7.401073
0.204                  0.1087655       -7.147871        0.4560631       -8.625869        0.4560581       -8.625765       0.02543627       -7.864638
0.216                  0.1087592        -7.56856        0.4560605       -9.133265        0.4560556       -9.133154       0.02542727       -8.328386
0.228                  0.1087525       -7.989288        0.4560578       -9.640658        0.4560529        -9.64054       0.02541775       -8.792325
0.24                   0.1087454       -8.410058        0.4560548       -10.14805          0.45605       -10.14793       0.02540773       -9.256469
0.252                   0.108738       -8.830869        0.4560518       -10.65544         0.456047       -10.65531       0.02539719       -9.720826
0.264                  0.1087302       -9.251725        0.4560486       -11.16283        0.4560438       -11.16269       0.02538614       -10.18541
0.276                  0.1087221       -9.672629        0.4560453       -11.67022        0.4560404       -11.67008       0.02537459       -10.65023
0.288                  0.1087136       -10.09358        0.4560418        -12.1776         0.456037       -12.17745       0.02536252        -11.1153
0.3                    0.1087048       -10.51459        0.4560382       -12.68499        0.4560333       -12.68483       0.02534995       -11.58062
0.312                  0.1086955       -10.93565        0.4560344       -13.19237        0.4560296       -13.19221       0.02533686       -12.04622
0.324                   0.108686       -11.35676        0.4560305       -13.69975        0.4560257       -13.69958       0.02532327       -12.51209
0.336                   0.108676       -11.77794        0.4560264       -14.20713        0.4560216       -14.20695       0.02530917       -12.97826
0.348                  0.1086658       -12.19917        0.4560222        -14.7145        0.4560174       -14.71432       0.02529457       -13.44472
0.36                   0.1086551       -12.62046        0.4560178       -15.22187        0.4560131       -15.22169       0.02527946        -13.9115
0.372                  0.1086441       -13.04182        0.4560133       -15.72924        0.4560085       -15.72905       0.02526385       -14.37861
0.384                  0.1086328       -13.46325        0.4560087       -16.23661        0.4560039       -16.23641       0.02524773       -14.84605
0.396                   0.108621       -13.88474        0.4560039       -16.74397        0.4559991       -16.74377        0.0252311       -15.31384
0.408                   0.108609        -14.3063        0.4559989       -17.25134        0.4559942       -17.25113       0.02521398       -15.78199
0.42                   0.1085965       -14.72794        0.4559938        -17.7587        0.4559891       -17.75848       0.02519635       -16.25051
0.432                  0.1085838       -15.14965        0.4559886       -18.26605        0.4559838       -18.26583       0.02517822        -16.7194
0.444                  0.1085706       -15.57144        0.4559832       -18.77341        0.4559785       -18.77318       0.02515959       -17.18869
0.456                  0.1085571       -15.99331        0.4559776       -19.28076         0.455973       -19.28052       0.02514047       -17.65839
0.468                  0.1085433       -16.41526         0.455972        -19.7881        0.4559673       -19.78786       0.02512084        -18.1285
0.48                   0.1085291       -16.83729        0.4559661       -20.29545        0.4559615        -20.2952       0.02510072       -18.59904
0.492                  0.1085145        -17.2594        0.4559602       -20.80279        0.4559555       -20.80254        0.0250801       -19.07001
0.504                  0.1084996       -17.68161        0.4559541       -21.31013        0.4559494       -21.30987       0.02505899       -19.54144
0.516                  0.1084843        -18.1039        0.4559478       -21.81746        0.4559432        -21.8172       0.02503737       -20.01332
0.528                  0.1084687       -18.52628        0.4559414        -22.3248        0.4559368       -22.32452       0.02501527       -20.48569
0.54                   0.1084527       -18.94876        0.4559348       -22.83212        0.4559302       -22.83184       0.02499268       -20.95853
0.552                  0.1084364       -19.37133        0.4559281       -23.33944        0.4559236       -23.33916       0.02496959       -21.43188
0.564                  0.1084197         -19.794        0.4559213       -23.84676        0.4559167       -23.84647       0.02494602       -21.90573
0.576                  0.1084027       -20.21677        0.4559143       -24.35408        0.4559098       -24.35379       0.02492195        -22.3801
0.588                  0.1083853       -20.63964        0.4559072       -24.86139        0.4559026       -24.86109        0.0248974       -22.85501
0.6                    0.1083676       -21.06261        0.4558999        -25.3687        0.4558954       -25.36839       0.02487237       -23.33046
0.612                  0.1083495       -21.48569        0.4558925         -25.876         0.455888       -25.87569       0.02484684       -23.80647
0.624                  0.1083311       -21.90888        0.4558849       -26.38331        0.4558804       -26.38299       0.02482084       -24.28305
0.636                  0.1083123       -22.33217        0.4558772        -26.8906        0.4558728       -26.89028       0.02479435       -24.76022
0.648                  0.1082932       -22.75558        0.4558694       -27.39789        0.4558649       -27.39757       0.02476738       -25.23797
0.66                   0.1082737        -23.1791        0.4558614       -27.90518         0.455857       -27.90484       0.02473993       -25.71633
0.672                  0.1082539       -23.60273        0.4558533       -28.41246        0.4558489       -28.41212       0.02471201       -26.19531
0.684                  0.1082338       -24.02649         0.455845       -28.91974        0.4558406        -28.9194       0.02468361       -26.67493
0.696                  0.1082132       -24.45036        0.4558366       -29.42701        0.4558322       -29.42666       0.02465473       -27.15519
0.708                  0.1081924       -24.87435         0.455828       -29.93428        0.4558236       -29.93393       0.02462538        -27.6361
0.72                   0.1081712       -25.29847        0.4558193       -30.44154         0.455815       -30.44118       0.02459556       -28.11769
0.732                  0.1081497       -25.72271        0.4558105        -30.9488        0.4558061       -30.94844       0.02456526       -28.59996
0.744                  0.1081278       -26.14708        0.4558015       -31.45606        0.4557972       -31.45569       0.02453451       -29.08292
0.756                  0.1081056       -26.57157        0.4557924       -31.96331         0.455788       -31.96293       0.02450328       -29.56659
0.768                   0.108083       -26.99621        0.4557831       -32.47055        0.4557788       -32.47017       0.02447159       -30.05099
0.78                   0.1080601       -27.42097        0.4557737       -32.97779        0.4557694        -32.9774       0.02443943       -30.53612
0.792                  0.1080368       -27.84587        0.4557642       -33.48503        0.4557599       -33.48463       0.02440682       -31.02199
0.804                  0.1080133        -28.2709        0.4557544       -33.99226        0.4557503       -33.99185       0.02437374       -31.50863
0.816                  0.1079893       -28.69607        0.4557447       -34.49948        0.4557404       -34.49907       0.02434021       -31.99605
0.828                  0.1079651       -29.12139        0.4557347        -35.0067        0.4557305       -35.00628       0.02430622       -32.48425
0.84                   0.1079405       -29.54684        0.4557246        -35.5139        0.4557204       -35.51349       0.02427178       -32.97325
0.852                  0.1079156       -29.97243        0.4557143       -36.02111        0.4557101       -36.02069       0.02423689       -33.46308
0.864                  0.1078903       -30.39818         0.455704       -36.52831        0.4556998       -36.52788       0.02420154       -33.95373
0.876                  0.1078647       -30.82407        0.4556934       -37.03551        0.4556893       -37.03508       0.02416575       -34.44522
0.888                  0.1078387       -31.25011        0.4556827        -37.5427        0.4556787       -37.54226       0.02412952       -34.93757
0.9                    0.1078125        -31.6763         0.455672       -38.04988        0.4556679       -38.04944       0.02409284       -35.43079
0.912                  0.1077859       -32.10265         0.455661       -38.55706         0.455657       -38.55661       0.02405573       -35.92491
0.924                  0.1077589       -32.52915          0.45565       -39.06423        0.4556459       -39.06377       0.02401817       -36.41992
0.936                  0.1077316       -32.95581        0.4556387       -39.57139        0.4556348       -39.57093       0.02398018       -36.91584
0.948                  0.1077041       -33.38263        0.4556274       -40.07855        0.4556234       -40.07809       0.02394175       -37.41269
0.96                   0.1076761       -33.80961        0.4556159       -40.58571         0.455612       -40.58523        0.0239029       -37.91049
0.972                  0.1076479       -34.23675        0.4556043       -41.09285        0.4556004       -41.09238       0.02386361       -38.40924
0.984                  0.1076193       -34.66405        0.4555926       -41.59999        0.4555886       -41.59951        0.0238239       -38.90898
0.996                  0.1075904       -35.09152        0.4555806       -42.10713        0.4555768       -42.10663       0.02378376        -39.4097
1.008                  0.1075612       -35.51916        0.4555686       -42.61425        0.4555648       -42.61376       0.02374321       -39.91142
1.02                   0.1075316       -35.94697        0.4555564       -43.12137        0.4555526       -43.12087       0.02370224       -40.41416
1.032                  0.1075017       -36.37494        0.4555441       -43.62849        0.4555403       -43.62798       0.02366085       -40.91793
1.044                  0.1074715        -36.8031        0.4555317        -44.1356         0.455528       -44.13508       0.02361905       -41.42276
1.056                   0.107441       -37.23143        0.4555191       -44.64269        0.4555154       -44.64218       0.02357683       -41.92865
1.068                  0.1074102       -37.65993        0.4555065       -45.14978        0.4555027       -45.14926       0.02353422       -42.43562
1.08                   0.1073791        -38.0886        0.4554935       -45.65687        0.4554899       -45.65634        0.0234912       -42.94369
1.092                  0.1073476       -38.51746        0.4554806       -46.16395        0.4554769       -46.16342       0.02344777       -43.45286
1.104                  0.1073158       -38.94651        0.4554675       -46.67102        0.4554639       -46.67048       0.02340396       -43.96316
1.116                  0.1072837       -39.37573        0.4554542       -47.17809        0.4554507       -47.17754       0.02335974       -44.47462
1.128                  0.1072513       -39.80513        0.4554409       -47.68514        0.4554373        -47.6846       0.02331513       -44.98723
1.14                   0.1072185       -40.23472        0.4554273       -48.19219        0.4554238       -48.19164       0.02327014       -45.50103
1.152                  0.1071855       -40.66451        0.4554138       -48.69923        0.4554102       -48.69868       0.02322476       -46.01601
1.164                  0.1071522       -41.09448           0.4554       -49.20626        0.4553965       -49.20571         0.023179       -46.53221
1.176                  0.1071185       -41.52464        0.4553861       -49.71329        0.4553826       -49.71272       0.02313286       -47.04963
1.188                  0.1070845         -41.955         0.455372       -50.22032        0.4553686       -50.21974       0.02308635       -47.56829
1.2                    0.1070502       -42.38555        0.4553579       -50.72732        0.4553545       -50.72675       0.02303946       -48.08822
1.212                  0.1070157       -42.81629        0.4553436       -51.23432        0.4553403       -51.23375       0.02299221       -48.60943
1.224                  0.1069808       -43.24723        0.4553292       -51.74132        0.4553259       -51.74074        0.0229446       -49.13193
1.236                  0.1069456       -43.67837        0.4553146       -52.24831        0.4553113       -52.24772       0.02289662       -49.65574
1.248                  0.1069101       -44.10971        0.4552999       -52.75529        0.4552967        -52.7547       0.02284829       -50.18089
1.26                   0.1068743       -44.54125        0.4552851       -53.26226        0.4552819       -53.26166       0.02279961       -50.70738
1.272                  0.1068382         -44.973        0.4552702       -53.76922         0.455267       -53.76862       0.02275057       -51.23526
1.284                  0.1068019       -45.40494        0.4552552       -54.27618         0.455252       -54.27557        0.0227012        -51.7645
1.296                  0.1067652        -45.8371          0.45524       -54.78312        0.4552368       -54.78252       0.02265148       -52.29516
1.308                  0.1067282       -46.26946        0.4552247       -55.29006        0.4552216       -55.28944       0.02260143       -52.82722
1.32                   0.1066909       -46.70203        0.4552093       -55.79699        0.4552062       -55.79637       0.02255104       -53.36074
1.332                  0.1066534       -47.13482        0.4551937       -56.30392        0.4551906       -56.30329       0.02250033       -53.89572
1.344                  0.1066155       -47.56782         0.455178       -56.81083         0.455175       -56.81019        0.0224493       -54.43217
1.356                  0.1065774       -48.00103        0.4551622       -57.31774        0.4551592       -57.31709       0.02239794       -54.97011
1.368                   0.106539       -48.43445        0.4551463       -57.82463        0.4551433       -57.82398       0.02234628       -55.50958
1.38                   0.1065003       -48.86809        0.4551301       -58.33152        0.4551273       -58.33086        0.0222943       -56.05058
1.392                  0.1064613       -49.30195         0.455114       -58.83839        0.4551111       -58.83774       0.02224201       -56.59314
1.404                   0.106422       -49.73603        0.4550977       -59.34525        0.4550948       -59.34461       0.02218943       -57.13726
1.416                  0.1063824       -50.17032        0.4550813       -59.85212        0.4550785       -59.85145       0.02213655       -57.68299
1.428                  0.1063426       -50.60484        0.4550647       -60.35897        0.4550619       -60.35831       0.02208338       -58.23033
1.44                   0.1063025       -51.03958         0.455048        -60.8658        0.4550452       -60.86515       0.02202993        -58.7793
1.452                  0.1062621       -51.47455        0.4550312       -61.37264        0.4550285       -61.37197       0.02197619       -59.32993
1.464                  0.1062214       -51.90974        0.4550143       -61.87946        0.4550116       -61.87879       0.02192218       -59.88223
1.476                  0.1061805       -52.34515        0.4549973       -62.38628        0.4549946       -62.38559        0.0218679       -60.43622
1.488                  0.1061393       -52.78079          0.45498       -62.89308        0.4549775        -62.8924       0.02181336       -60.99194
1.5                    0.1060978       -53.21667        0.4549628       -63.39987        0.4549602       -63.39918       0.02175855       -61.54939
1.512                  0.1060561       -53.65278        0.4549454       -63.90666        0.4549429       -63.90597       0.02170349       -62.10859
1.524                  0.1060141       -54.08911        0.4549278       -64.41344        0.4549254       -64.41274       0.02164819       -62.66958
1.536                  0.1059718       -54.52568        0.4549102        -64.9202        0.4549077       -64.91951       0.02159264       -63.23236
1.548                  0.1059293       -54.96249        0.4548925       -65.42695          0.45489       -65.42626       0.02153686       -63.79697
1.56                   0.1058865       -55.39952        0.4548746        -65.9337        0.4548722         -65.933       0.02148084       -64.36342
1.572                  0.1058434        -55.8368        0.4548565       -66.44044        0.4548543       -66.43973        0.0214246       -64.93173
1.584                  0.1058001       -56.27431        0.4548384       -66.94717        0.4548362       -66.94645       0.02136814       -65.50194
1.596                  0.1057566       -56.71207        0.4548202       -67.45389        0.4548179       -67.45316       0.02131147       -66.07405
1.608                  0.1057128       -57.15005        0.4548019        -67.9606        0.4547996       -67.95987       0.02125459        -66.6481
1.62                   0.1056687       -57.58828        0.4547834        -68.4673        0.4547813       -68.46656       0.02119752       -67.22408
1.632                  0.1056244       -58.02676        0.4547648       -68.97398        0.4547627       -68.97324       0.02114024       -67.80207
1.644                  0.1055798       -58.46547        0.4547462       -69.48065         0.454744       -69.47991       0.02108278       -68.38203
1.656                   0.105535       -58.90443        0.4547274       -69.98731        0.4547252       -69.98657       0.02102514       -68.96402
1.668                  0.1054899       -59.34366        0.4547084       -70.49397        0.4547063       -70.49322       0.02096733       -69.54804
1.68                   0.1054447       -59.78309        0.4546894       -71.00061        0.4546874       -70.99987       0.02090936       -70.13414
1.692                  0.1053991       -60.22279        0.4546703       -71.50724        0.4546683        -71.5065       0.02085121       -70.72232
1.704                  0.1053534       -60.66273         0.454651       -72.01387        0.4546491       -72.01311       0.02079292       -71.31263
1.716                  0.1053074       -61.10294        0.4546316       -72.52048        0.4546297       -72.51972       0.02073449       -71.90507
1.728                  0.1052611       -61.54338        0.4546121       -73.02708        0.4546103       -73.02633       0.02067591       -72.49967
1.74                   0.1052146       -61.98409        0.4545925       -73.53368        0.4545907       -73.53292       0.02061721       -73.09643
1.752                   0.105168       -62.42503        0.4545728       -74.04026        0.4545711       -74.03948       0.02055837       -73.69542
1.764                   0.105121       -62.86624         0.454553       -74.54683        0.4545513       -74.54605       0.02049943       -74.29665
1.776                  0.1050739       -63.30768        0.4545331       -75.05338        0.4545314       -75.05262       0.02044038       -74.90009
1.788                  0.1050265       -63.74939        0.4545131       -75.55993        0.4545115       -75.55917       0.02038122       -75.50587
1.8                     0.104979       -64.19136        0.4544929       -76.06647        0.4544913       -76.06569       0.02032198       -76.11389
1.812                  0.1049311       -64.63359        0.4544727       -76.57299        0.4544711       -76.57222       0.02026265       -76.72425
1.824                  0.1048831       -65.07605        0.4544523       -77.07951        0.4544508       -77.07872       0.02020324       -77.33698
1.836                  0.1048349       -65.51879        0.4544319       -77.58602        0.4544304       -77.58522       0.02014377       -77.95206
1.848                  0.1047865       -65.96179        0.4544114        -78.0925        0.4544099       -78.09171       0.02008424       -78.56954
1.86                   0.1047378       -66.40503        0.4543907       -78.59898        0.4543892       -78.59819       0.02002465       -79.18947
1.872                   0.104689       -66.84855        0.4543698       -79.10546        0.4543685       -79.10465       0.01996502       -79.81182
1.884                  0.1046399       -67.29232         0.454349       -79.61191        0.4543477       -79.61109       0.01990537       -80.43663
1.896                  0.1045907       -67.73635         0.454328       -80.11838        0.4543268       -80.11753       0.01984568       -81.06394
1.908                  0.1045412       -68.18063        0.4543069       -80.62479        0.4543057         -80.624       0.01978598       -81.69376
1.92                   0.1044915        -68.6252        0.4542857       -81.13122        0.4542846       -81.13042       0.01972627       -82.32614
1.932                  0.1044417       -69.07001        0.4542645       -81.63764        0.4542633       -81.63679       0.01966657       -82.96109
1.944                  0.1043917       -69.51511        0.4542431       -82.14404         0.454242       -82.14319       0.01960688       -83.59859
1.956                  0.1043415       -69.96046        0.4542215       -82.65039        0.4542205       -82.64957       0.01954721       -84.23874
1.968                   0.104291       -70.40607           0.4542       -83.15677         0.454199       -83.15595       0.01948757        -84.8815
1.98                   0.1042405       -70.85193        0.4541782       -83.66315        0.4541773       -83.66233       0.01942797       -85.52694
1.992                  0.1041897       -71.29809        0.4541565       -84.16951        0.4541556       -84.16867       0.01936843       -86.17503
2.004                  0.1041387       -71.74451        0.4541346       -84.67585        0.4541337         -84.675       0.01930894       -86.82588
2.016                  0.1040876       -72.19117        0.4541126       -85.18219        0.4541118       -85.18134       0.01924953       -87.47943
2.028                  0.1040363       -72.63814        0.4540905       -85.68847        0.4540897       -85.68766        0.0191902       -88.13573
2.04                   0.1039848       -73.08534        0.4540683       -86.19479        0.4540676       -86.19397       0.01913096       -88.79479
2.052                  0.1039332       -73.53284         0.454046       -86.70109        0.4540453       -86.70024       0.01907182       -89.45666
2.064                  0.1038814       -73.98058        0.4540237       -87.20736         0.454023       -87.20651       0.01901279       -90.12138
2.076                  0.1038294        -74.4286        0.4540012       -87.71363        0.4540006       -87.71276       0.01895389        -90.7889
2.088                  0.1037773       -74.87689        0.4539786       -88.21989         0.453978       -88.21904       0.01889512        -91.4593
2.1                     0.103725       -75.32543         0.453956       -88.72614        0.4539554       -88.72529        0.0188365        -92.1326
2.112                  0.1036726       -75.77426        0.4539332       -89.23234        0.4539327        -89.2315       0.01877803        -92.8088
2.124                    0.10362       -76.22338        0.4539104       -89.73858        0.4539099       -89.73773       0.01871973       -93.48791
2.136                  0.1035672       -76.67274        0.4538874       -90.24479         0.453887       -90.24391       0.01866161       -94.16998
2.148                  0.1035144       -77.12235        0.4538644       -90.75097         0.453864       -90.75013       0.01860369       -94.85503
2.16                   0.1034613        -77.5723        0.4538412       -91.25716        0.4538409       -91.25626       0.01854596       -95.54306
2.172                  0.1034082       -78.02249         0.453818       -91.76333        0.4538177       -91.76246       0.01848844       -96.23412
2.184                  0.1033549       -78.47291        0.4537947       -92.26947        0.4537945        -92.2686       0.01843116       -96.92818
2.196                  0.1033014       -78.92366        0.4537713       -92.77562        0.4537711       -92.77474       0.01837411        -97.6253
2.208                  0.1032478       -79.37466        0.4537478       -93.28177        0.4537477       -93.28087       0.01831731       -98.32549
2.22                   0.1031941       -79.82592        0.4537243       -93.78787        0.4537242       -93.78699       0.01826078       -99.02874
2.232                  0.1031403       -80.27749        0.4537007       -94.29394        0.4537006       -94.29309       0.01820451        -99.7351
2.244                  0.1030864       -80.72931        0.4536769       -94.80005        0.4536769        -94.7992       0.01814853       -100.4446
2.256                  0.1030323       -81.18138         0.453653       -95.30613        0.4536531       -95.30525       0.01809286       -101.1572
2.268                  0.1029781       -81.63374        0.4536291       -95.81221        0.4536292       -95.81131       0.01803749        -101.873
2.28                   0.1029238        -82.0864        0.4536051       -96.31824        0.4536052       -96.31734       0.01798246       -102.5919
2.292                  0.1028694        -82.5393         0.453581       -96.82428        0.4535812       -96.82338       0.01792775        -103.314
2.304                  0.1028149       -82.99248        0.4535569       -97.33032        0.4535571       -97.32939        0.0178734       -104.0393
2.316                  0.1027603       -83.44594        0.4535326       -97.83631        0.4535329       -97.83544       0.01781942       -104.7677
2.328                  0.1027055       -83.89966        0.4535083       -98.34233        0.4535086        -98.3414       0.01776581       -105.4994
2.34                   0.1026507       -84.35367        0.4534839        -98.8483        0.4534842        -98.8474       0.01771259       -106.2343
2.352                  0.1025958       -84.80793        0.4534593       -99.35427        0.4534598       -99.35337       0.01765977       -106.9725
2.364                  0.1025408       -85.26248        0.4534348       -99.86022        0.4534352       -99.85932       0.01760737       -107.7138
2.376                  0.1024857       -85.71729        0.4534101       -100.3662        0.4534106       -100.3653        0.0175554       -108.4585
2.388                  0.1024305       -86.17238        0.4533854       -100.8721        0.4533859       -100.8712       0.01750388       -109.2063