! 4-Port simulation of a 2:1 balun
! Port 1: x1 input
! Port 2: x2 output
! Port 3: x1 input
! Port 4: x2 output
# HZ S RI R 50
1.00000000000e+007 +1.69306586660e-002 +4.82339307424e-002 -9.99966689002e-003 -6.69637680775e-002 -9.83069341334e-001 +4.82339307424e-002 -9.99966689002e-003 -6.69637680775e-002
                  -9.99966689002e-003 -6.69637680775e-002 +2.41296326708e-002 +9.64425791861e-002 -9.99966689002e-003 -6.69637680775e-002 -9.75870367329e-001 +9.64425791861e-002
                  -9.83069341334e-001 +4.82339307424e-002 -9.99966689002e-003 -6.69637680775e-002 +1.69306586660e-002 +4.82339307424e-002 -9.99966689002e-003 -6.69637680775e-002
                  -9.99966689002e-003 -6.69637680775e-002 -9.75870367329e-001 +9.64425791861e-002 -9.99966689002e-003 -6.69637680775e-002 +2.41296326708e-002 +9.64425791861e-002
1.03117727459e+007 +1.73656758981e-002 +4.96712969024e-002 -1.06184738039e-002 -6.89569921252e-002 -9.82634324102e-001 +4.96712969024e-002 -1.06184738039e-002 -6.89569921252e-002
                  -1.06184738039e-002 -6.89569921252e-002 +2.50101422314e-002 +9.93149099567e-002 -1.06184738039e-002 -6.89569921252e-002 -9.74989857769e-001 +9.93149099567e-002
                  -9.82634324102e-001 +4.96712969024e-002 -1.06184738039e-002 -6.89569921252e-002 +1.73656758981e-002 +4.96712969024e-002 -1.06184738039e-002 -6.89569921252e-002
                  -1.06184738039e-002 -6.89569921252e-002 -9.74989857769e-001 +9.93149099567e-002 -1.06184738039e-002 -6.89569921252e-002 +2.50101422314e-002 +9.93149099567e-002
1.06332657164e+007 +1.78269474595e-002 +5.11472703447e-002 -1.12746268239e-002 -7.10035299215e-002 -9.82173052541e-001 +5.11472703447e-002 -1.12746268239e-002 -7.10035299215e-002
                  -1.12746268239e-002 -7.10035299215e-002 +2.59437923816e-002 +1.02264229717e-001 -1.12746268239e-002 -7.10035299215e-002 -9.74056207618e-001 +1.02264229717e-001
                  -9.82173052541e-001 +5.11472703447e-002 -1.12746268239e-002 -7.10035299215e-002 +1.78269474595e-002 +5.11472703447e-002 -1.12746268239e-002 -7.10035299215e-002
                  -1.12746268239e-002 -7.10035299215e-002 -9.74056207618e-001 +1.02264229717e-001 -1.12746268239e-002 -7.10035299215e-002 +2.59437923816e-002 +1.02264229717e-001
1.09647819614e+007 +1.83159732168e-002 +5.26624887904e-002 -1.19702594231e-002 -7.31042384280e-002 -9.81684026783e-001 +5.26624887904e-002 -1.19702594231e-002 -7.31042384280e-002
                  -1.19702594231e-002 -7.31042384280e-002 +2.69336189210e-002 +1.05291793134e-001 -1.19702594231e-002 -7.31042384280e-002 -9.73066381079e-001 +1.05291793134e-001
                  -9.81684026783e-001 +5.26624887904e-002 -1.19702594231e-002 -7.31042384280e-002 +1.83159732168e-002 +5.26624887904e-002 -1.19702594231e-002 -7.31042384280e-002
                  -1.19702594231e-002 -7.31042384280e-002 -9.73066381079e-001 +1.05291793134e-001 -1.19702594231e-002 -7.31042384280e-002 +2.69336189210e-002 +1.05291793134e-001
1.13066339795e+007 +1.88343279896e-002 +5.42175604414e-002 -1.27076116838e-002 -7.52599310374e-002 -9.81165672010e-001 +5.42175604414e-002 -1.27076116838e-002 -7.52599310374e-002
                  -1.27076116838e-002 -7.52599310374e-002 +2.79828093521e-002 +1.08398793987e-001 -1.27076116838e-002 -7.52599310374e-002 -9.72017190648e-001 +1.08398793987e-001
                  -9.81165672010e-001 +5.42175604414e-002 -1.27076116838e-002 -7.52599310374e-002 +1.88343279896e-002 +5.42175604414e-002 -1.27076116838e-002 -7.52599310374e-002
                  -1.27076116838e-002 -7.52599310374e-002 -9.72017190648e-001 +1.08398793987e-001 -1.27076116838e-002 -7.52599310374e-002 +2.79828093521e-002 +1.08398793987e-001
1.16591440118e+007 +1.93836639169e-002 +5.58130591026e-002 -1.34890336631e-002 -7.74713705832e-002 -9.80616336083e-001 +5.58130591026e-002 -1.34890336631e-002 -7.74713705832e-002
                  -1.34890336631e-002 -7.74713705832e-002 +2.90947076706e-002 +1.11586355261e-001 -1.34890336631e-002 -7.74713705832e-002 -9.70905292329e-001 +1.11586355261e-001
                  -9.80616336083e-001 +5.58130591026e-002 -1.34890336631e-002 -7.74713705832e-002 +1.93836639169e-002 +5.58130591026e-002 -1.34890336631e-002 -7.74713705832e-002
                  -1.34890336631e-002 -7.74713705832e-002 -9.70905292329e-001 +1.11586355261e-001 -1.34890336631e-002 -7.74713705832e-002 +2.90947076706e-002 +1.11586355261e-001
1.20226443462e+007 +1.99657127086e-002 +5.74495188902e-002 -1.43169885933e-002 -7.97392617619e-002 -9.80034287291e-001 +5.74495188902e-002 -1.43169885933e-002 -7.97392617619e-002
                  -1.43169885933e-002 -7.97392617619e-002 +3.02728189196e-002 +1.14855518400e-001 -1.43169885933e-002 -7.97392617619e-002 -9.69727181080e-001 +1.14855518400e-001
                  -9.80034287291e-001 +5.74495188902e-002 -1.43169885933e-002 -7.97392617619e-002 +1.99657127086e-002 +5.74495188902e-002 -1.43169885933e-002 -7.97392617619e-002
                  -1.43169885933e-002 -7.97392617619e-002 -9.69727181080e-001 +1.14855518400e-001 -1.43169885933e-002 -7.97392617619e-002 +3.02728189196e-002 +1.14855518400e-001
1.23974776303e+007 +2.05822877452e-002 +5.91274285086e-002 -1.51940558683e-002 -8.20642429369e-002 -9.79417712255e-001 +5.91274285086e-002 -1.51940558683e-002 -8.20642429369e-002
                  -1.51940558683e-002 -8.20642429369e-002 +3.15208134408e-002 +1.18207231679e-001 -1.51940558683e-002 -8.20642429369e-002 -9.68479186559e-001 +1.18207231679e-001
                  -9.79417712255e-001 +5.91274285086e-002 -1.51940558683e-002 -8.20642429369e-002 +2.05822877452e-002 +5.91274285086e-002 -1.51940558683e-002 -8.20642429369e-002
                  -1.51940558683e-002 -8.20642429369e-002 -9.68479186559e-001 +1.18207231679e-001 -1.51940558683e-002 -8.20642429369e-002 +3.15208134408e-002 +1.18207231679e-001
1.27839971946e+007 +2.12352859912e-002 +6.08472250731e-002 -1.61229337621e-002 -8.44468772970e-002 -9.78764714009e-001 +6.08472250731e-002 -1.61229337621e-002 -8.44468772970e-002
                  -1.61229337621e-002 -8.44468772970e-002 +3.28425307436e-002 +1.21642337664e-001 -1.61229337621e-002 -8.44468772970e-002 -9.67157469256e-001 +1.21642337664e-001
                  -9.78764714009e-001 +6.08472250731e-002 -1.61229337621e-002 -8.44468772970e-002 +2.12352859912e-002 +6.08472250731e-002 -1.61229337621e-002 -8.44468772970e-002
                  -1.61229337621e-002 -8.44468772970e-002 -9.67157469256e-001 +1.21642337664e-001 -1.61229337621e-002 -8.44468772970e-002 +3.28425307436e-002 +1.21642337664e-001
1.31825673856e+007 +2.19266896760e-002 +6.26092874632e-002 -1.71064418188e-002 -8.68876433437e-002 -9.78073310324e-001 +6.26092874632e-002 -1.71064418188e-002 -8.68876433437e-002
                  -1.71064418188e-002 -8.68876433437e-002 +3.42419829075e-002 +1.25161559719e-001 -1.71064418188e-002 -8.68876433437e-002 -9.65758017092e-001 +1.25161559719e-001
                  -9.78073310324e-001 +6.26092874632e-002 -1.71064418188e-002 -8.68876433437e-002 +2.19266896760e-002 +6.26092874632e-002 -1.71064418188e-002 -8.68876433437e-002
                  -1.71064418188e-002 -8.68876433437e-002 -9.65758017092e-001 +1.25161559719e-001 -1.71064418188e-002 -8.68876433437e-002 +3.42419829075e-002 +1.25161559719e-001
1.35935639088e+007 +2.26585676978e-002 +6.44139291874e-002 -1.81475228472e-002 -8.93869246826e-002 -9.77341432302e-001 +6.44139291874e-002 -1.81475228472e-002 -8.93869246826e-002
                  -1.81475228472e-002 -8.93869246826e-002 +3.57233574219e-002 +1.28765487518e-001 -1.81475228472e-002 -8.93869246826e-002 -9.64276642578e-001 +1.28765487518e-001
                  -9.77341432302e-001 +6.44139291874e-002 -1.81475228472e-002 -8.93869246826e-002 +2.26585676978e-002 +6.44139291874e-002 -1.81475228472e-002 -8.93869246826e-002
                  -1.81475228472e-002 -8.93869246826e-002 -9.64276642578e-001 +1.28765487518e-001 -1.81475228472e-002 -8.93869246826e-002 +3.57233574219e-002 +1.28765487518e-001
1.40173741835e+007 +2.34330766970e-002 +6.62613907470e-002 -1.92492444447e-002 -9.19449990998e-002 -9.76566923303e-001 +6.62613907470e-002 -1.92492444447e-002 -9.19449990998e-002
                  -1.92492444447e-002 -9.19449990998e-002 +3.72910193559e-002 +1.32454561547e-001 -1.92492444447e-002 -9.19449990998e-002 -9.62708980644e-001 +1.32454561547e-001
                  -9.76566923303e-001 +6.62613907470e-002 -1.92492444447e-002 -9.19449990998e-002 +2.34330766970e-002 +6.62613907470e-002 -1.92492444447e-002 -9.19449990998e-002
                  -1.92492444447e-002 -9.19449990998e-002 -9.62708980644e-001 +1.32454561547e-001 -1.92492444447e-002 -9.19449990998e-002 +3.72910193559e-002 +1.32454561547e-001
1.44543977075e+007 +2.42524617416e-002 +6.81518314870e-002 -2.04147999695e-002 -9.45620269073e-002 -9.75747538258e-001 +6.81518314870e-002 -2.04147999695e-002 -9.45620269073e-002
                  -2.04147999695e-002 -9.45620269073e-002 +3.89495127445e-002 +1.36229056562e-001 -2.04147999695e-002 -9.45620269073e-002 -9.61050487256e-001 +1.36229056562e-001
                  -9.75747538258e-001 +6.81518314870e-002 -2.04147999695e-002 -9.45620269073e-002 +2.42524617416e-002 +6.81518314870e-002 -2.04147999695e-002 -9.45620269073e-002
                  -2.04147999695e-002 -9.45620269073e-002 -9.61050487256e-001 +1.36229056562e-001 -2.04147999695e-002 -9.45620269073e-002 +3.89495127445e-002 +1.36229056562e-001
1.49050464339e+007 +2.51190565617e-002 +7.00853209281e-002 -2.16475088713e-002 -9.72380385474e-002 -9.74880943438e-001 +7.00853209281e-002 -2.16475088713e-002 -9.72380385474e-002
                  -2.16475088713e-002 -9.72380385474e-002 +4.07035610605e-002 +1.40089064001e-001 -2.16475088713e-002 -9.72380385474e-002 -9.59296438940e-001 +1.40089064001e-001
                  -9.74880943438e-001 +7.00853209281e-002 -2.16475088713e-002 -9.72380385474e-002 +2.51190565617e-002 +7.00853209281e-002 -2.16475088713e-002 -9.72380385474e-002
                  -2.16475088713e-002 -9.72380385474e-002 -9.59296438940e-001 +1.40089064001e-001 -2.16475088713e-002 -9.72380385474e-002 +4.07035610605e-002 +1.40089064001e-001
1.53697451594e+007 +2.60352832652e-002 +7.20618295756e-002 -2.29508162831e-002 -9.99729214514e-002 -9.73964716735e-001 +7.20618295756e-002 -2.29508162831e-002 -9.99729214514e-002
                  -2.29508162831e-002 -9.99729214514e-002 +4.25580666368e-002 +1.44034473328e-001 -2.29508162831e-002 -9.99729214514e-002 -9.57441933363e-001 +1.44034473328e-001
                  -9.73964716735e-001 +7.20618295756e-002 -2.29508162831e-002 -9.99729214514e-002 +2.60352832652e-002 +7.20618295756e-002 -2.29508162831e-002 -9.99729214514e-002
                  -2.29508162831e-002 -9.99729214514e-002 -9.57441933363e-001 +1.44034473328e-001 -2.29508162831e-002 -9.99729214514e-002 +4.25580666368e-002 +1.44034473328e-001
1.58489319246e+007 +2.70036514602e-002 +7.40812192098e-002 -2.43282917689e-002 -1.02766406159e-001 -9.72996348540e-001 +7.40812192098e-002 -2.43282917689e-002 -1.02766406159e-001
                  -2.43282917689e-002 -1.02766406159e-001 +4.45181088869e-002 +1.48064952332e-001 -2.43282917689e-002 -1.02766406159e-001 -9.55481891113e-001 +1.48064952332e-001
                  -9.72996348540e-001 +7.40812192098e-002 -2.43282917689e-002 -1.02766406159e-001 +2.70036514602e-002 +7.40812192098e-002 -2.43282917689e-002 -1.02766406159e-001
                  -2.43282917689e-002 -1.02766406159e-001 -9.55481891113e-001 +1.48064952332e-001 -2.43282917689e-002 -1.02766406159e-001 +4.45181088869e-002 +1.48064952332e-001
1.63430584272e+007 +2.80267567045e-002 +7.61432326664e-002 -2.57836271137e-002 -1.05618051708e-001 -9.71973243296e-001 +7.61432326664e-002 -2.57836271137e-002 -1.05618051708e-001
                  -2.57836271137e-002 -1.05618051708e-001 +4.65889411635e-002 +1.52179926394e-001 -2.57836271137e-002 -1.05618051708e-001 -9.53411058836e-001 +1.52179926394e-001
                  -9.71973243296e-001 +7.61432326664e-002 -2.57836271137e-002 -1.05618051708e-001 +2.80267567045e-002 +7.61432326664e-002 -2.57836271137e-002 -1.05618051708e-001
                  -2.57836271137e-002 -1.05618051708e-001 -9.53411058836e-001 +1.52179926394e-001 -2.57836271137e-002 -1.05618051708e-001 +4.65889411635e-002 +1.52179926394e-001
1.68525904475e+007 +2.91072781978e-002 +7.82474831260e-002 -2.73206330362e-002 -1.08527230329e-001 -9.70892721802e-001 +7.82474831260e-002 -2.73206330362e-002 -1.08527230329e-001
                  -2.73206330362e-002 -1.08527230329e-001 +4.87759860844e-002 +1.56378556745e-001 -2.73206330362e-002 -1.08527230329e-001 -9.51224013916e-001 +1.56378556745e-001
                  -9.70892721802e-001 +7.82474831260e-002 -2.73206330362e-002 -1.08527230329e-001 +2.91072781978e-002 +7.82474831260e-002 -2.73206330362e-002 -1.08527230329e-001
                  -2.73206330362e-002 -1.08527230329e-001 -9.51224013916e-001 +1.56378556745e-001 -2.73206330362e-002 -1.08527230329e-001 +4.87759860844e-002 +1.56378556745e-001
1.73780082875e+007 +3.02479756268e-002 +8.03934429364e-002 -2.89432346951e-002 -1.11493111463e-001 -9.69752024373e-001 +8.03934429364e-002 -2.89432346951e-002 -1.11493111463e-001
                  -2.89432346951e-002 -1.11493111463e-001 +5.10848291418e-002 +1.60659717800e-001 -2.89432346951e-002 -1.11493111463e-001 -9.48915170858e-001 +1.60659717800e-001
                  -9.69752024373e-001 +8.03934429364e-002 -2.89432346951e-002 -1.11493111463e-001 +3.02479756268e-002 +8.03934429364e-002 -2.89432346951e-002 -1.11493111463e-001
                  -2.89432346951e-002 -1.11493111463e-001 -9.48915170858e-001 +1.60659717800e-001 -2.89432346951e-002 -1.11493111463e-001 +5.10848291418e-002 +1.60659717800e-001
1.79198072238e+007 +3.14516850681e-002 +8.25804320074e-002 -3.06554658555e-002 -1.14514645179e-001 -9.68548314932e-001 +8.25804320074e-002 -3.06554658555e-002 -1.14514645179e-001
                  -3.06554658555e-002 -1.14514645179e-001 +5.35212104059e-002 +1.65021973599e-001 -3.06554658555e-002 -1.14514645179e-001 -9.46478789594e-001 +1.65021973599e-001
                  -9.68548314932e-001 +8.25804320074e-002 -3.06554658555e-002 -1.14514645179e-001 +3.14516850681e-002 +8.25804320074e-002 -3.06554658555e-002 -1.14514645179e-001
                  -3.06554658555e-002 -1.14514645179e-001 -9.46478789594e-001 +1.65021973599e-001 -3.06554658555e-002 -1.14514645179e-001 +5.35212104059e-002 +1.65021973599e-001
1.84784979742e+007 +3.27213138513e-002 +8.48076058238e-002 -3.24614615752e-002 -1.17590545043e-001 -9.67278686149e-001 +8.48076058238e-002 -3.24614615752e-002 -1.17590545043e-001
                  -3.24614615752e-002 -1.17590545043e-001 +5.60910141232e-002 +1.69463553495e-001 -3.24614615752e-002 -1.17590545043e-001 -9.43908985877e-001 +1.69463553495e-001
                  -9.67278686149e-001 +8.48076058238e-002 -3.24614615752e-002 -1.17590545043e-001 +3.27213138513e-002 +8.48076058238e-002 -3.24614615752e-002 -1.17590545043e-001
                  -3.24614615752e-002 -1.17590545043e-001 -9.43908985877e-001 +1.69463553495e-001 -3.24614615752e-002 -1.17590545043e-001 +5.60910141232e-002 +1.69463553495e-001
1.90546071796e+007 +3.40598342810e-002 +8.70739431397e-002 -3.43654492673e-002 -1.20719270523e-001 -9.65940165719e-001 +8.70739431397e-002 -3.43654492673e-002 -1.20719270523e-001
                  -3.43654492673e-002 -1.20719270523e-001 +5.88002560031e-002 +1.73982327182e-001 -3.43654492673e-002 -1.20719270523e-001 -9.41199743997e-001 +1.73982327182e-001
                  -9.65940165719e-001 +8.70739431397e-002 -3.43654492673e-002 -1.20719270523e-001 +3.40598342810e-002 +8.70739431397e-002 -3.43654492673e-002 -1.20719270523e-001
                  -3.43654492673e-002 -1.20719270523e-001 -9.41199743997e-001 +1.73982327182e-001 -3.43654492673e-002 -1.20719270523e-001 +5.88002560031e-002 +1.73982327182e-001
1.96486778999e+007 +3.54702761149e-002 +8.93782334282e-002 -3.63717379919e-002 -1.23899009058e-001 -9.64529723885e-001 +8.93782334282e-002 -3.63717379919e-002 -1.23899009058e-001
                  -3.63717379919e-002 -1.23899009058e-001 +6.16550679879e-002 +1.78575779231e-001 -3.63717379919e-002 -1.23899009058e-001 -9.38344932012e-001 +1.78575779231e-001
                  -9.64529723885e-001 +8.93782334282e-002 -3.63717379919e-002 -1.23899009058e-001 +3.54702761149e-002 +8.93782334282e-002 -3.63717379919e-002 -1.23899009058e-001
                  -3.63717379919e-002 -1.23899009058e-001 -9.38344932012e-001 +1.78575779231e-001 -3.63717379919e-002 -1.23899009058e-001 +6.16550679879e-002 +1.78575779231e-001
2.02612701262e+007 +3.69557176936e-002 +9.17190641793e-002 -3.84847058308e-002 -1.27127657898e-001 -9.63044282306e-001 +9.17190641793e-002 -3.84847058308e-002 -1.27127657898e-001
                  -3.84847058308e-002 -1.27127657898e-001 +6.46616802928e-002 +1.83240983316e-001 -3.84847058308e-002 -1.27127657898e-001 -9.35338319707e-001 +1.83240983316e-001
                  -9.63044282306e-001 +9.17190641793e-002 -3.84847058308e-002 -1.27127657898e-001 +3.69557176936e-002 +9.17190641793e-002 -3.84847058308e-002 -1.27127657898e-001
                  -3.84847058308e-002 -1.27127657898e-001 -9.35338319707e-001 +1.83240983316e-001 -3.84847058308e-002 -1.27127657898e-001 +6.46616802928e-002 +1.83240983316e-001
2.08929613085e+007 +3.85192756218e-002 +9.40948081542e-002 -4.07087851992e-002 -1.30402805878e-001 -9.61480724378e-001 +9.40948081542e-002 -4.07087851992e-002 -1.30402805878e-001
                  -4.07087851992e-002 -1.30402805878e-001 +6.78264005131e-002 +1.87974576350e-001 -4.07087851992e-002 -1.30402805878e-001 -9.32173599487e-001 +1.87974576350e-001
                  -9.61480724378e-001 +9.40948081542e-002 -4.07087851992e-002 -1.30402805878e-001 +3.85192756218e-002 +9.40948081542e-002 -4.07087851992e-002 -1.30402805878e-001
                  -4.07087851992e-002 -1.30402805878e-001 -9.32173599487e-001 +1.87974576350e-001 -4.07087851992e-002 -1.30402805878e-001 +6.78264005131e-002 +1.87974576350e-001
2.15443469003e+007 +4.01640929015e-002 +9.65036107229e-002 -4.30484459550e-002 -1.33721715321e-001 -9.59835907098e-001 +9.65036107229e-002 -4.30484459550e-002 -1.33721715321e-001
                  -4.30484459550e-002 -1.33721715321e-001 +7.11555895970e-002 +1.92772732791e-001 -4.30484459550e-002 -1.33721715321e-001 -9.28844410403e-001 +1.92772732791e-001
                  -9.59835907098e-001 +9.65036107229e-002 -4.30484459550e-002 -1.33721715321e-001 +4.01640929015e-002 +9.65036107229e-002 -4.30484459550e-002 -1.33721715321e-001
                  -4.30484459550e-002 -1.33721715321e-001 -9.28844410403e-001 +1.92772732791e-001 -4.30484459550e-002 -1.33721715321e-001 +7.11555895970e-002 +1.92772732791e-001
2.22160409196e+007 +4.18933254248e-002 +9.89433774332e-002 -4.55081761742e-002 -1.37081304248e-001 -9.58106674575e-001 +9.89433774332e-002 -4.55081761742e-002 -1.37081304248e-001
                  -4.55081761742e-002 -1.37081304248e-001 +7.46556344985e-002 +1.97631139404e-001 -4.55081761742e-002 -1.37081304248e-001 -9.25344365501e-001 +1.97631139404e-001
                  -9.58106674575e-001 +9.89433774332e-002 -4.55081761742e-002 -1.37081304248e-001 +4.18933254248e-002 +9.89433774332e-002 -4.55081761742e-002 -1.37081304248e-001
                  -4.55081761742e-002 -1.37081304248e-001 -9.25344365501e-001 +1.97631139404e-001 -4.55081761742e-002 -1.37081304248e-001 +7.46556344985e-002 +1.97631139404e-001
2.29086765277e+007 +4.37101267433e-002 +1.01411761977e-001 -4.80924604729e-002 -1.40478129169e-001 -9.56289873257e-001 +1.01411761977e-001 -4.80924604729e-002 -1.40478129169e-001
                  -4.80924604729e-002 -1.40478129169e-001 +7.83329173403e-002 +2.02544970839e-001 -4.80924604729e-002 -1.40478129169e-001 -9.21667082660e-001 +2.02544970839e-001
                  -9.56289873257e-001 +1.01411761977e-001 -4.80924604729e-002 -1.40478129169e-001 +4.37101267433e-002 +1.01411761977e-001 -4.80924604729e-002 -1.40478129169e-001
                  -4.80924604729e-002 -1.40478129169e-001 -9.21667082660e-001 +2.02544970839e-001 -4.80924604729e-002 -1.40478129169e-001 +7.83329173403e-002 +2.02544970839e-001
2.36229066263e+007 +4.56176310416e-002 +1.03906154745e-001 -5.08057557754e-002 -1.43908368694e-001 -9.54382368958e-001 +1.03906154745e-001 -5.08057557754e-002 -1.43908368694e-001
                  -5.08057557754e-002 -1.43908368694e-001 +8.21937809419e-002 +2.07508866385e-001 -5.08057557754e-002 -1.43908368694e-001 -9.17806219058e-001 +2.07508866385e-001
                  -9.54382368958e-001 +1.03906154745e-001 -5.08057557754e-002 -1.43908368694e-001 +4.56176310416e-002 +1.03906154745e-001 -5.08057557754e-002 -1.43908368694e-001
                  -5.08057557754e-002 -1.43908368694e-001 -9.17806219058e-001 +2.07508866385e-001 -5.08057557754e-002 -1.43908368694e-001 +8.21937809419e-002 +2.07508866385e-001
2.43594044729e+007 +4.76189342603e-002 +1.06423672175e-001 -5.36524644464e-002 -1.47367808281e-001 -9.52381065740e-001 +1.06423672175e-001 -5.36524644464e-002 -1.47367808281e-001
                  -5.36524644464e-002 -1.47367808281e-001 +8.62444906006e-002 +2.12516908343e-001 -5.36524644464e-002 -1.47367808281e-001 -9.13755509399e-001 +2.12516908343e-001
                  -9.52381065740e-001 +1.06423672175e-001 -5.36524644464e-002 -1.47367808281e-001 +4.76189342603e-002 +1.06423672175e-001 -5.36524644464e-002 -1.47367808281e-001
                  -5.36524644464e-002 -1.47367808281e-001 -9.13755509399e-001 +2.12516908343e-001 -5.36524644464e-002 -1.47367808281e-001 +8.62444906006e-002 +2.12516908343e-001
2.51188643151e+007 +4.97170733307e-002 +1.08961147131e-001 -5.66369047385e-002 -1.50851826437e-001 -9.50282926669e-001 +1.08961147131e-001 -5.66369047385e-002 -1.50851826437e-001
                  -5.66369047385e-002 -1.50851826437e-001 +9.04911920499e-002 +2.17562602464e-001 -5.66369047385e-002 -1.50851826437e-001 -9.09508807950e-001 +2.17562602464e-001
                  -9.50282926669e-001 +1.08961147131e-001 -5.66369047385e-002 -1.50851826437e-001 +4.97170733307e-002 +1.08961147131e-001 -5.66369047385e-002 -1.50851826437e-001
                  -5.66369047385e-002 -1.50851826437e-001 -9.09508807950e-001 +2.17562602464e-001 -5.66369047385e-002 -1.50851826437e-001 +9.04911920499e-002 +2.17562602464e-001
2.59020020453e+007 +5.19150035097e-002 +1.11515120560e-001 -5.97632785341e-002 -1.54355382745e-001 -9.48084996490e-001 +1.11515120560e-001 -5.97632785341e-002 -1.54355382745e-001
                  -5.97632785341e-002 -1.54355382745e-001 +9.49398655718e-002 +2.22638860991e-001 -5.97632785341e-002 -1.54355382745e-001 -9.05060134428e-001 +2.22638860991e-001
                  -9.48084996490e-001 +1.11515120560e-001 -5.97632785341e-002 -1.54355382745e-001 +5.19150035097e-002 +1.11515120560e-001 -5.97632785341e-002 -1.54355382745e-001
                  -5.97632785341e-002 -1.54355382745e-001 -9.05060134428e-001 +2.22638860991e-001 -5.97632785341e-002 -1.54355382745e-001 +9.49398655718e-002 +2.22638860991e-001
2.67095558756e+007 +5.42155738293e-002 +1.14081834696e-001 -6.30356364061e-002 -1.57873008078e-001 -9.45784426171e-001 +1.14081834696e-001 -6.30356364061e-002 -1.57873008078e-001
                  -6.30356364061e-002 -1.57873008078e-001 +9.95962762923e-002 +2.27737988818e-001 -6.30356364061e-002 -1.57873008078e-001 -9.00403723708e-001 +2.27737988818e-001
                  -9.45784426171e-001 +1.14081834696e-001 -6.30356364061e-002 -1.57873008078e-001 +5.42155738293e-002 +1.14081834696e-001 -6.30356364061e-002 -1.57873008078e-001
                  -6.30356364061e-002 -1.57873008078e-001 -9.00403723708e-001 +2.27737988818e-001 -6.30356364061e-002 -1.57873008078e-001 +9.95962762923e-002 +2.27737988818e-001
2.75422870334e+007 +5.66215007109e-002 +1.16657228103e-001 -6.64578400650e-002 -1.61398797431e-001 -9.43378499289e-001 +1.16657228103e-001 -6.64578400650e-002 -1.61398797431e-001
                  -6.64578400650e-002 -1.61398797431e-001 +1.04465920761e-001 +2.32851673368e-001 -6.64578400650e-002 -1.61398797431e-001 -8.95534079239e-001 +2.32851673368e-001
                  -9.43378499289e-001 +1.16657228103e-001 -6.64578400650e-002 -1.61398797431e-001 +5.66215007109e-002 +1.16657228103e-001 -6.64578400650e-002 -1.61398797431e-001
                  -6.64578400650e-002 -1.61398797431e-001 -8.95534079239e-001 +2.32851673368e-001 -6.64578400650e-002 -1.61398797431e-001 +1.04465920761e-001 +2.32851673368e-001
2.84009804791e+007 +5.91353398280e-002 +1.19236932847e-001 -7.00335223149e-002 -1.64926405781e-001 -9.40864660172e-001 +1.19236932847e-001 -7.00335223149e-002 -1.64926405781e-001
                  -7.00335223149e-002 -1.64926405781e-001 +1.09553969984e-001 +2.37970978790e-001 -7.00335223149e-002 -1.64926405781e-001 -8.90446030016e-001 +2.37970978790e-001
                  -9.40864660172e-001 +1.19236932847e-001 -7.00335223149e-002 -1.64926405781e-001 +5.91353398280e-002 +1.19236932847e-001 -7.00335223149e-002 -1.64926405781e-001
                  -7.00335223149e-002 -1.64926405781e-001 -8.90446030016e-001 +2.37970978790e-001 -7.00335223149e-002 -1.64926405781e-001 +1.09553969984e-001 +2.37970978790e-001
2.92864456463e+007 +6.17594563479e-002 +1.21816274113e-001 -7.37660447004e-002 -1.68449047420e-001 -9.38240543652e-001 +1.21816274113e-001 -7.37660447004e-002 -1.68449047420e-001
                  -7.37660447004e-002 -1.68449047420e-001 +1.14865209177e-001 +2.43086345092e-001 -7.37660447004e-002 -1.68449047420e-001 -8.85134790823e-001 +2.43086345092e-001
                  -9.38240543652e-001 +1.21816274113e-001 -7.37660447004e-002 -1.68449047420e-001 +6.17594563479e-002 +1.21816274113e-001 -7.37660447004e-002 -1.68449047420e-001
                  -7.37660447004e-002 -1.68449047420e-001 -8.85134790823e-001 +2.43086345092e-001 -7.37660447004e-002 -1.68449047420e-001 +1.14865209177e-001 +2.43086345092e-001
3.01995172040e+007 +6.44959937241e-002 +1.24390272577e-001 -7.76584530928e-002 -1.71959499201e-001 -9.35504006276e-001 +1.24390272577e-001 -7.76584530928e-002 -1.71959499201e-001
                  -7.76584530928e-002 -1.71959499201e-001 +1.20403974582e-001 +2.48187592852e-001 -7.76584530928e-002 -1.71959499201e-001 -8.79596025418e-001 +2.48187592852e-001
                  -9.35504006276e-001 +1.24390272577e-001 -7.76584530928e-002 -1.71959499201e-001 +6.44959937241e-002 +1.24390272577e-001 -7.76584530928e-002 -1.71959499201e-001
                  -7.76584530928e-002 -1.71959499201e-001 -8.79596025418e-001 +2.48187592852e-001 -7.76584530928e-002 -1.71959499201e-001 +1.20403974582e-001 +2.48187592852e-001
3.11410558445e+007 +6.73468412650e-002 +1.26953649840e-001 -8.17134315337e-002 -1.75450108138e-001 -9.32653158735e-001 +1.26953649840e-001 -8.17134315337e-002 -1.75450108138e-001
                  -8.17134315337e-002 -1.75450108138e-001 +1.26174087805e-001 +2.53263934124e-001 -8.17134315337e-002 -1.75450108138e-001 -8.73825912195e-001 +2.53263934124e-001
                  -9.32653158735e-001 +1.26953649840e-001 -8.17134315337e-002 -1.75450108138e-001 +6.73468412650e-002 +1.26953649840e-001 -8.17134315337e-002 -1.75450108138e-001
                  -8.17134315337e-002 -1.75450108138e-001 -8.73825912195e-001 +2.53263934124e-001 -8.17134315337e-002 -1.75450108138e-001 +1.26174087805e-001 +2.53263934124e-001
3.21119490936e+007 +7.03136007570e-002 +1.29500837226e-001 -8.59332547307e-002 -1.78912803792e-001 -9.29686399243e-001 +1.29500837226e-001 -8.59332547307e-002 -1.78912803792e-001
                  -8.59332547307e-002 -1.78912803792e-001 +1.32178788244e-001 +2.58303990150e-001 -8.59332547307e-002 -1.78912803792e-001 -8.67821211756e-001 +2.58303990150e-001
                  -9.29686399243e-001 +1.29500837226e-001 -8.59332547307e-002 -1.78912803792e-001 +7.03136007570e-002 +1.29500837226e-001 -8.59332547307e-002 -1.78912803792e-001
                  -8.59332547307e-002 -1.78912803792e-001 -8.67821211756e-001 +2.58303990150e-001 -8.59332547307e-002 -1.78912803792e-001 +1.32178788244e-001 +2.58303990150e-001
3.31131121483e+007 +7.33975524714e-002 +1.32025988223e-001 -9.03197396782e-002 -1.82339115831e-001 -9.26602447529e-001 +1.32025988223e-001 -9.03197396782e-002 -1.82339115831e-001
                  -9.03197396782e-002 -1.82339115831e-001 +1.38420664263e-001 +2.63295816445e-001 -9.03197396782e-002 -1.82339115831e-001 -8.61579335737e-001 +2.63295816445e-001
                  -9.26602447529e-001 +1.32025988223e-001 -9.03197396782e-002 -1.82339115831e-001 +7.33975524714e-002 +1.32025988223e-001 -9.03197396782e-002 -1.82339115831e-001
                  -9.03197396782e-002 -1.82339115831e-001 -8.61579335737e-001 +2.63295816445e-001 -9.03197396782e-002 -1.82339115831e-001 +1.38420664263e-001 +2.63295816445e-001
3.41454887383e+007 +7.65996209467e-002 +1.34522994821e-001 -9.48741969556e-002 -1.85720197134e-001 -9.23400379053e-001 +1.34522994821e-001 -9.48741969556e-002 -1.85720197134e-001
                  -9.48741969556e-002 -1.85720197134e-001 +1.44901583914e-001 +2.68226935767e-001 -9.48741969556e-002 -1.85720197134e-001 -8.55098416086e-001 +2.68226935767e-001
                  -9.23400379053e-001 +1.34522994821e-001 -9.48741969556e-002 -1.85720197134e-001 +7.65996209467e-002 +1.34522994821e-001 -9.48741969556e-002 -1.85720197134e-001
                  -9.48741969556e-002 -1.85720197134e-001 -8.55098416086e-001 +2.68226935767e-001 -9.48741969556e-002 -1.85720197134e-001 +1.44901583914e-001 +2.68226935767e-001
3.52100520168e+007 +7.99203409880e-002 +1.36985507963e-001 -9.95973823340e-002 -1.89046852739e-001 -9.20079659012e-001 +1.36985507963e-001 -9.95973823340e-002 -1.89046852739e-001
                  -9.95973823340e-002 -1.89046852739e-001 +1.51622626100e-001 +2.73084379408e-001 -9.95973823340e-002 -1.89046852739e-001 -8.48377373900e-001 +2.73084379408e-001