! Simulation of a Chebyshev BPF, 5 GHz
# hz S ma R 50
100000000                 1        -3.57768631     5.57057082e-13        -93.5776863     5.57057082e-13        -93.5776863                  1        -3.57768631
102302326                 1         -3.6601104     6.53437259e-13        -93.6601104     6.53437259e-13        -93.6601104                  1         -3.6601104
104604651                 1        -3.74253818     7.63783689e-13        -93.7425382     7.63783689e-13        -93.7425382                  1        -3.74253818
106906977                 1        -3.82496974     8.89746361e-13        -93.8249698     8.89746361e-13        -93.8249698                  1        -3.82496974
109209302                 1        -3.90740516     1.03312815e-12        -93.9074052     1.03312815e-12        -93.9074052                  1        -3.90740516
111511628                 1        -3.98984452     1.19589529e-12        -93.9898446     1.19589529e-12        -93.9898446                  1        -3.98984452
113813953                 1        -4.07228791     1.38018829e-12        -94.0722879     1.38018829e-12        -94.0722879                  1        -4.07228791
116116279                 1        -4.15473541      1.5883334e-12        -94.1547354      1.5883334e-12        -94.1547354                  1        -4.15473541
118418605                 1         -4.2371871     1.82285451e-12        -94.2371871     1.82285451e-12        -94.2371871                  1         -4.2371871
120720930                 1        -4.31964307     2.08648561e-12        -94.3196431     2.08648561e-12        -94.3196431                  1        -4.31964307
123023256                 1         -4.4021034     2.38218376e-12        -94.4021034     2.38218376e-12        -94.4021034                  1         -4.4021034
125325581                 1        -4.48456818      2.7131426e-12        -94.4845682      2.7131426e-12        -94.4845682                  1        -4.48456818
127627907                 1        -4.56703748     3.08280638e-12        -94.5670375     3.08280638e-12        -94.5670375                  1        -4.56703748
129930233                 1         -4.6495114     3.49488461e-12        -94.6495114     3.49488461e-12        -94.6495114                  1         -4.6495114
132232558                 1        -4.73199002     3.95336722e-12        -94.7319901     3.95336722e-12        -94.7319901                  1        -4.73199002
134534884                 1        -4.81447341     4.46254036e-12        -94.8144735     4.46254036e-12        -94.8144735                  1        -4.81447341
136837209                 1        -4.89696167     5.02700277e-12        -94.8969617     5.02700277e-12        -94.8969617                  1        -4.89696167
139139535                 1        -4.97945488     5.65168277e-12        -94.9794549     5.65168277e-12        -94.9794549                  1        -4.97945488
141441860                 1        -5.06195312     6.34185586e-12        -95.0619532     6.34185586e-12        -95.0619532                  1        -5.06195312
143744186                 1        -5.14445648       7.103163e-12        -95.1444565       7.103163e-12        -95.1444565                  1        -5.14445648
146046512                 1        -5.22696504     7.94162947e-12        -95.2269651     7.94162947e-12        -95.2269651                  1        -5.22696504
148348837                 1        -5.30947888     8.86368449e-12        -95.3094789     8.86368449e-12        -95.3094789                  1        -5.30947888
150651163                 1         -5.3919981     9.87618143e-12        -95.3919981     9.87618143e-12        -95.3919981                  1         -5.3919981
152953488                 1        -5.47452276     1.09864188e-11        -95.4745228     1.09864188e-11        -95.4745228                  1        -5.47452276
155255814                 1        -5.55705297     1.22021617e-11         -95.557053     1.22021617e-11         -95.557053                  1        -5.55705297
157558140                 1         -5.6395888     1.35316646e-11        -95.6395888     1.35316646e-11        -95.6395888                  1         -5.6395888
159860465                 1        -5.72213034      1.4983694e-11        -95.7221304      1.4983694e-11        -95.7221304                  1        -5.72213034
162162791                 1        -5.80467767     1.65675523e-11        -95.8046777     1.65675523e-11        -95.8046777                  1        -5.80467767
164465116                 1        -5.88723088      1.8293103e-11        -95.8872309      1.8293103e-11        -95.8872309                  1        -5.88723088
166767442                 1        -5.96979005     2.01707951e-11        -95.9697901     2.01707951e-11        -95.9697901                  1        -5.96979005
169069767                 1        -6.05235527     2.22116903e-11        -96.0523553     2.22116903e-11        -96.0523553                  1        -6.05235527
171372093                 1        -6.13492662     2.44274891e-11        -96.1349267     2.44274891e-11        -96.1349267                  1        -6.13492662
173674419                 1        -6.21750419     2.68305592e-11        -96.2175042     2.68305592e-11        -96.2175042                  1        -6.21750419
175976744                 1        -6.30008806     2.94339639e-11        -96.3000881     2.94339639e-11        -96.3000881                  1        -6.30008806
178279070                 1        -6.38267832     3.22514915e-11        -96.3826784     3.22514915e-11        -96.3826784                  1        -6.38267832
180581395                 1        -6.46527505     3.52976858e-11        -96.4652751     3.52976858e-11        -96.4652751                  1        -6.46527505
182883721                 1        -6.54787834     3.85878775e-11        -96.5478784     3.85878775e-11        -96.5478784                  1        -6.54787834
185186047                 1        -6.63048828     4.21382159e-11        -96.6304883     4.21382159e-11        -96.6304883                  1        -6.63048828
187488372                 1        -6.71310494     4.59657021e-11         -96.713105     4.59657021e-11         -96.713105                  1        -6.71310494
189790698                 1        -6.79572842     5.00882233e-11        -96.7957285     5.00882233e-11        -96.7957285                  1        -6.79572842
192093023                 1         -6.8783588     5.45245874e-11        -96.8783589     5.45245874e-11        -96.8783589                  1         -6.8783588
194395349                 1        -6.96099616     5.92945588e-11        -96.9609962     5.92945588e-11        -96.9609962                  1        -6.96099616
196697674                 1         -7.0436406     6.44188956e-11        -97.0436407     6.44188956e-11        -97.0436407                  1         -7.0436406
199000000                 1         -7.1262922     6.99193872e-11        -97.1262923     6.99193872e-11        -97.1262923                  1         -7.1262922
201302326                 1        -7.20895104     7.58188932e-11        -97.2089511     7.58188932e-11        -97.2089511                  1        -7.20895104
203604651                 1        -7.29161721     8.21413835e-11        -97.2916173     8.21413835e-11        -97.2916173                  1        -7.29161721
205906977                 1         -7.3742908     8.89119789e-11        -97.3742909     8.89119789e-11        -97.3742909                  1         -7.3742908
208209302                 1        -7.45697189     9.61569936e-11         -97.456972     9.61569936e-11         -97.456972                  1        -7.45697189
210511628                 1        -7.53966057     1.03903978e-10        -97.5396606     1.03903978e-10        -97.5396606                  1        -7.53966057
212813953                 1        -7.62235693     1.12181762e-10         -97.622357     1.12181762e-10         -97.622357                  1        -7.62235693
215116279                 1        -7.70506105     1.21020503e-10        -97.7050611     1.21020503e-10        -97.7050611                  1        -7.70506105
217418605                 1        -7.78777302      1.3045173e-10        -97.7877731      1.3045173e-10        -97.7877731                  1        -7.78777302
219720930                 1        -7.87049293      1.4050839e-10         -97.870493      1.4050839e-10         -97.870493                  1        -7.87049293
222023256                 1        -7.95322085     1.51224901e-10        -97.9532209     1.51224901e-10        -97.9532209                  1        -7.95322085
224325581                 1        -8.03595689     1.62637199e-10         -98.035957     1.62637199e-10         -98.035957                  1        -8.03595689
226627907                 1        -8.11870113     1.74782789e-10        -98.1187012     1.74782789e-10        -98.1187012                  1        -8.11870113
228930233                 1        -8.20145365     1.87700798e-10        -98.2014537     1.87700798e-10        -98.2014537                  1        -8.20145365
231232558                 1        -8.28421455     2.01432032e-10        -98.2842146     2.01432032e-10        -98.2842146                  1        -8.28421455
233534884                 1         -8.3669839     2.16019024e-10         -98.366984     2.16019024e-10         -98.366984                  1         -8.3669839
235837209                 1         -8.4497618     2.31506097e-10        -98.4497619     2.31506097e-10        -98.4497619                  1         -8.4497618
238139535                 1        -8.53254833     2.47939416e-10        -98.5325484     2.47939416e-10        -98.5325484                  1        -8.53254833
240441860                 1        -8.61534359     2.65367053e-10        -98.6153437     2.65367053e-10        -98.6153437                  1        -8.61534359
242744186                 1        -8.69814765     2.83839041e-10        -98.6981477     2.83839041e-10        -98.6981477                  1        -8.69814765
245046512                 1        -8.78096062      3.0340744e-10        -98.7809607      3.0340744e-10        -98.7809607                  1        -8.78096062
247348837                 1        -8.86378257       3.241264e-10        -98.8637826       3.241264e-10        -98.8637826                  1        -8.86378257
249651163                 1        -8.94661359     3.46052221e-10        -98.9466137     3.46052221e-10        -98.9466137                  1        -8.94661359
251953488                 1        -9.02945378     3.69243425e-10        -99.0294539     3.69243425e-10        -99.0294539                  1        -9.02945378
254255814                 1        -9.11230322     3.93760818e-10        -99.1123033     3.93760818e-10        -99.1123033                  1        -9.11230322
256558140                 1          -9.195162     4.19667563e-10        -99.1951621     4.19667563e-10        -99.1951621                  1          -9.195162
258860465                 1         -9.2780302     4.47029249e-10        -99.2780303     4.47029249e-10        -99.2780303                  1         -9.2780302
261162791                 1        -9.36090792     4.75913962e-10         -99.360908     4.75913962e-10         -99.360908                  1        -9.36090792
263465116                 1        -9.44379525     5.06392358e-10        -99.4437953     5.06392358e-10        -99.4437953                  1        -9.44379525
265767442                 1        -9.52669228     5.38537742e-10        -99.5266924     5.38537742e-10        -99.5266924                  1        -9.52669228
268069767                 1        -9.60959909      5.7242614e-10        -99.6095992      5.7242614e-10        -99.6095992                  1        -9.60959909
270372093                 1        -9.69251577     6.08136379e-10        -99.6925158     6.08136379e-10        -99.6925158                  1        -9.69251577
272674419                 1        -9.77544241     6.45750168e-10        -99.7754425     6.45750168e-10        -99.7754425                  1        -9.77544241
274976744                 1        -9.85837911      6.8535218e-10        -99.8583792      6.8535218e-10        -99.8583792                  1        -9.85837911
277279070                 1        -9.94132595     7.27030133e-10         -99.941326     7.27030133e-10         -99.941326                  1        -9.94132595
279581395                 1         -10.024283     7.70874876e-10        -100.024283     7.70874876e-10        -100.024283                  1         -10.024283
281883721                 1        -10.1072504     8.16980478e-10         -100.10725     8.16980478e-10         -100.10725                  1        -10.1072504
284186047                 1        -10.1902282     8.65444313e-10        -100.190228     8.65444313e-10        -100.190228                  1        -10.1902282
286488372                 1        -10.2732165     9.16367155e-10        -100.273217     9.16367155e-10        -100.273217                  1        -10.2732165
288790698                 1        -10.3562154     9.69853266e-10        -100.356216     9.69853266e-10        -100.356216                  1        -10.3562154
291093023                 1         -10.439225     1.02601049e-09        -100.439225     1.02601049e-09        -100.439225                  1         -10.439225
293395349                 1        -10.5222454     1.08495036e-09        -100.522245     1.08495036e-09        -100.522245                  1        -10.5222454
295697674                 1        -10.6052766     1.14678818e-09        -100.605277     1.14678818e-09        -100.605277                  1        -10.6052766
298000000                 1        -10.6883188     1.21164312e-09        -100.688319     1.21164312e-09        -100.688319                  1        -10.6883188
300302326                 1         -10.771372     1.27963836e-09        -100.771372     1.27963836e-09        -100.771372                  1         -10.771372
302604651                 1        -10.8544363     1.35090114e-09        -100.854436     1.35090114e-09        -100.854436                  1        -10.8544363
304906977                 1        -10.9375119      1.4255629e-09        -100.937512      1.4255629e-09        -100.937512                  1        -10.9375119
307209302                 1        -11.0205988     1.50375937e-09        -101.020599     1.50375937e-09        -101.020599                  1        -11.0205988
309511628                 1        -11.1036971     1.58563071e-09        -101.103697     1.58563071e-09        -101.103697                  1        -11.1036971
311813953                 1         -11.186807     1.67132156e-09        -101.186807     1.67132156e-09        -101.186807                  1         -11.186807
314116279                 1        -11.2699284     1.76098125e-09        -101.269928     1.76098125e-09        -101.269928                  1        -11.2699284
316418605                 1        -11.3530615     1.85476381e-09        -101.353062     1.85476381e-09        -101.353062                  1        -11.3530615
318720930                 1        -11.4362064     1.95282818e-09        -101.436206     1.95282818e-09        -101.436206                  1        -11.4362064
321023256                 1        -11.5193631     2.05533826e-09        -101.519363     2.05533826e-09        -101.519363                  1        -11.5193631
323325581                 1        -11.6025319      2.1624631e-09        -101.602532      2.1624631e-09        -101.602532                  1        -11.6025319
325627907                 1        -11.6857126     2.27437697e-09        -101.685713     2.27437697e-09        -101.685713                  1        -11.6857126
327930233                 1        -11.7689056     2.39125952e-09        -101.768906     2.39125952e-09        -101.768906                  1        -11.7689056
330232558                 1        -11.8521107     2.51329588e-09        -101.852111     2.51329588e-09        -101.852111                  1        -11.8521107
332534884                 1        -11.9353282     2.64067684e-09        -101.935328     2.64067684e-09        -101.935328                  1        -11.9353282
334837209                 1        -12.0185582     2.77359895e-09        -102.018558     2.77359895e-09        -102.018558                  1        -12.0185582
337139535                 1        -12.1018006     2.91226467e-09        -102.101801     2.91226467e-09        -102.101801                  1        -12.1018006
339441860                 1        -12.1850557      3.0568825e-09        -102.185056      3.0568825e-09        -102.185056                  1        -12.1850557
341744186                 1        -12.2683235     3.20766714e-09        -102.268324     3.20766714e-09        -102.268324                  1        -12.2683235
344046512                 1        -12.3516041     3.36483961e-09        -102.351604     3.36483961e-09        -102.351604                  1        -12.3516041
346348837                 1        -12.4348976     3.52862745e-09        -102.434898     3.52862745e-09        -102.434898                  1        -12.4348976
348651163                 1         -12.518204     3.69926481e-09        -102.518204     3.69926481e-09        -102.518204                  1         -12.518204
350953488                 1        -12.6015236     3.87699264e-09        -102.601524     3.87699264e-09        -102.601524                  1        -12.6015236
353255814                 1        -12.6848564     4.06205883e-09        -102.684856     4.06205883e-09        -102.684856                  1        -12.6848564
355558140                 1        -12.7682024     4.25471839e-09        -102.768202     4.25471839e-09        -102.768202                  1        -12.7682024
357860465                 1        -12.8515618     4.45523358e-09        -102.851562     4.45523358e-09        -102.851562                  1        -12.8515618
360162791                 1        -12.9349347     4.66387412e-09        -102.934935     4.66387412e-09        -102.934935                  1        -12.9349347
362465116                 1        -13.0183211     4.88091733e-09        -103.018321     4.88091733e-09        -103.018321                  1        -13.0183211
364767442                 1        -13.1017212     5.10664827e-09        -103.101721     5.10664827e-09        -103.101721                  1        -13.1017212
367069767                 1         -13.185135        5.34136e-09        -103.185135        5.34136e-09        -103.185135                  1         -13.185135
369372093                 1        -13.2685627     5.58535367e-09        -103.268563     5.58535367e-09        -103.268563                  1        -13.2685627
371674419                 1        -13.3520043     5.83893875e-09        -103.352004     5.83893875e-09        -103.352004                  1        -13.3520043
373976744                 1          -13.43546      6.1024332e-09         -103.43546      6.1024332e-09         -103.43546                  1          -13.43546
376279070                 1        -13.5189298     6.37616365e-09         -103.51893     6.37616365e-09         -103.51893                  1        -13.5189298
378581395                 1        -13.6024139     6.66046561e-09        -103.602414     6.66046561e-09        -103.602414                  1        -13.6024139
380883721                 1        -13.6859123     6.95568365e-09        -103.685912     6.95568365e-09        -103.685912                  1        -13.6859123
383186047                 1        -13.7694251     7.26217158e-09        -103.769425     7.26217158e-09        -103.769425                  1        -13.7694251
385488372                 1        -13.8529524     7.58029268e-09        -103.852953     7.58029268e-09        -103.852953                  1        -13.8529524
387790698                 1        -13.9364944      7.9104199e-09        -103.936494      7.9104199e-09        -103.936494                  1        -13.9364944
390093023                 1         -14.020051     8.25293604e-09        -104.020051     8.25293604e-09        -104.020051                  1         -14.020051
392395349                 1        -14.1036225     8.60823401e-09        -104.103623     8.60823401e-09        -104.103623                  1        -14.1036225
394697674                 1         -14.187209     8.97671696e-09        -104.187209     8.97671696e-09        -104.187209                  1         -14.187209
397000000                 1        -14.2708104     9.35879862e-09        -104.270811     9.35879862e-09        -104.270811                  1        -14.2708104
399302326                 1        -14.3544269     9.75490339e-09        -104.354427     9.75490339e-09        -104.354427                  1        -14.3544269
401604651                 1        -14.4380587     1.01654667e-08        -104.438059     1.01654667e-08        -104.438059                  1        -14.4380587
403906977                 1        -14.5217058      1.0590935e-08        -104.521706      1.0590935e-08        -104.521706                  1        -14.5217058
406209302                 1        -14.6053682     1.10317665e-08        -104.605368     1.10317665e-08        -104.605368                  1        -14.6053682
408511628                 1        -14.6890462     1.14884306e-08        -104.689046     1.14884306e-08        -104.689046                  1        -14.6890462
410813953                 1        -14.7727398     1.19614091e-08         -104.77274     1.19614091e-08         -104.77274                  1        -14.7727398
413116279                 1        -14.8564491     1.24511955e-08        -104.856449     1.24511955e-08        -104.856449                  1        -14.8564491
415418605                 1        -14.9401743      1.2958296e-08        -104.940174      1.2958296e-08        -104.940174                  1        -14.9401743
417720930                 1        -15.0239153     1.34832292e-08        -105.023915     1.34832292e-08        -105.023915                  1        -15.0239153
420023256                 1        -15.1076723     1.40265269e-08        -105.107672     1.40265269e-08        -105.107672                  1        -15.1076723
422325581                 1        -15.1914455     1.45887339e-08        -105.191446     1.45887339e-08        -105.191446                  1        -15.1914455
424627907                 1        -15.2752348     1.51704083e-08        -105.275235     1.51704083e-08        -105.275235                  1        -15.2752348
426930233                 1        -15.3590405     1.57721221e-08        -105.359041     1.57721221e-08        -105.359041                  1        -15.3590405
429232558                 1        -15.4428625     1.63944612e-08        -105.442863     1.63944612e-08        -105.442863                  1        -15.4428625
431534884                 1        -15.5267011     1.70380259e-08        -105.526701     1.70380259e-08        -105.526701                  1        -15.5267011
433837209                 1        -15.6105563     1.77034307e-08        -105.610556     1.77034307e-08        -105.610556                  1        -15.6105563
436139535                 1        -15.6944283     1.83913053e-08        -105.694428     1.83913053e-08        -105.694428                  1        -15.6944283
438441860                 1         -15.778317     1.91022942e-08        -105.778317     1.91022942e-08        -105.778317                  1         -15.778317
440744186                 1        -15.8622227     1.98370577e-08        -105.862223     1.98370577e-08        -105.862223                  1        -15.8622227
443046512                 1        -15.9461454     2.05962714e-08        -105.946145     2.05962714e-08        -105.946145                  1        -15.9461454
445348837                 1        -16.0300852     2.13806272e-08        -106.030085     2.13806272e-08        -106.030085                  1        -16.0300852
447651163                 1        -16.1140422     2.21908334e-08        -106.114042     2.21908334e-08        -106.114042                  1        -16.1140422
449953488                 1        -16.1980166     2.30276146e-08        -106.198017     2.30276146e-08        -106.198017                  1        -16.1980166
452255814                 1        -16.2820084     2.38917129e-08        -106.282009     2.38917129e-08        -106.282009                  1        -16.2820084
454558140                 1        -16.3660178     2.47838872e-08        -106.366018     2.47838872e-08        -106.366018                  1        -16.3660178
456860465                 1        -16.4500448     2.57049145e-08        -106.450045     2.57049145e-08        -106.450045                  1        -16.4500448
459162791                 1        -16.5340895     2.66555894e-08         -106.53409     2.66555894e-08         -106.53409                  1        -16.5340895
461465116                 1        -16.6181521     2.76367251e-08        -106.618152     2.76367251e-08        -106.618152                  1        -16.6181521
463767442                 1        -16.7022327     2.86491534e-08        -106.702233     2.86491534e-08        -106.702233                  1        -16.7022327
466069767                 1        -16.7863313     2.96937251e-08        -106.786331     2.96937251e-08        -106.786331                  1        -16.7863313
468372093                 1        -16.8704481     3.07713104e-08        -106.870448     3.07713104e-08        -106.870448                  1        -16.8704481
470674419                 1        -16.9545832     3.18827993e-08        -106.954583     3.18827993e-08        -106.954583                  1        -16.9545832
472976744                 1        -17.0387366     3.30291019e-08        -107.038737     3.30291019e-08        -107.038737                  1        -17.0387366
475279070                 1        -17.1229086     3.42111489e-08        -107.122909     3.42111489e-08        -107.122909                  1        -17.1229086
477581395                 1        -17.2070991     3.54298918e-08        -107.207099     3.54298918e-08        -107.207099                  1        -17.2070991
479883721                 1        -17.2913083     3.66863034e-08        -107.291308     3.66863034e-08        -107.291308                  1        -17.2913083
482186047                 1        -17.3755364     3.79813782e-08        -107.375537     3.79813782e-08        -107.375537                  1        -17.3755364
484488372                 1        -17.4597833     3.93161329e-08        -107.459783     3.93161329e-08        -107.459783                  1        -17.4597833
486790698                 1        -17.5440493     4.06916066e-08        -107.544049     4.06916066e-08        -107.544049                  1        -17.5440493
489093023                 1        -17.6283344     4.21088613e-08        -107.628335     4.21088613e-08        -107.628335                  1        -17.6283344
491395349                 1        -17.7126387     4.35689824e-08        -107.712639     4.35689824e-08        -107.712639                  1        -17.7126387
493697674                 1        -17.7969624      4.5073079e-08        -107.796963      4.5073079e-08        -107.796963                  1        -17.7969624
496000000                 1        -17.8813055     4.66222844e-08        -107.881306     4.66222844e-08        -107.881306                  1        -17.8813055
498302326                 1        -17.9656682     4.82177567e-08        -107.965668     4.82177567e-08        -107.965668                  1        -17.9656682
500604651                 1        -18.0500506     4.98606789e-08        -108.050051     4.98606789e-08        -108.050051                  1        -18.0500506
502906977                 1        -18.1344527     5.15522596e-08        -108.134453     5.15522596e-08        -108.134453                  1        -18.1344527
505209302                 1        -18.2188747     5.32937336e-08        -108.218875     5.32937336e-08        -108.218875                  1        -18.2188747
507511628                 1        -18.3033167      5.5086362e-08        -108.303317      5.5086362e-08        -108.303317                  1        -18.3033167
509813953                 1        -18.3877789     5.69314328e-08        -108.387779     5.69314328e-08        -108.387779                  1        -18.3877789
512116279                 1        -18.4722612     5.88302617e-08        -108.472261     5.88302617e-08        -108.472261                  1        -18.4722612
514418605                 1        -18.5567639     6.07841921e-08        -108.556764     6.07841921e-08        -108.556764                  1        -18.5567639
516720930                 1         -18.641287     6.27945961e-08        -108.641287     6.27945961e-08        -108.641287                  1         -18.641287
519023256                 1        -18.7258307     6.48628745e-08        -108.725831     6.48628745e-08        -108.725831                  1        -18.7258307
521325581                 1        -18.8103951     6.69904576e-08        -108.810395     6.69904576e-08        -108.810395                  1        -18.8103951