! Simulation of a 4-port directional coupler
! P1 and P2 are the thru ports, P3 is coupled to P2, P4 is coupled to P1
# hz S ma R 50
1e+09 0.0975086355 -36.8525517 0.869356548 -21.8293564 0.0592368205 -19.7347558 0.176347391 72.9946176
 0.869356548 -21.8293564 0.101065059 -43.0536535 0.176526399 69.4937418 0.0584654668 -22.233604
 0.0592368205 -19.7347558 0.176526399 69.4937418 0.123274478 -20.0151371 0.000453306202 -54.0580932
 0.176347391 72.9946176 0.0584654668 -22.233604 0.000453306202 -54.0580932 0.122940472 -18.4774616 
1.03e+09 0.0977353326 -37.9038244 0.869298426 -22.4834508 0.0593229511 -20.2989 0.176311851 72.4821198
 0.869298426 -22.4834508 0.101490266 -44.2521912 0.176493402 68.875462 0.0585311921 -22.864676
 0.0593229511 -20.2989 0.176493402 68.875462 0.12340157 -20.6073809 0.000464365769 -54.2128872
 0.176311851 72.4821198 0.0585311921 -22.864676 0.000464365769 -54.2128872 0.123047783 -19.0251445 
1.06e+09 0.0979666962 -38.950708 0.869238656 -23.1375053 0.0594085274 -20.8640287 0.176276284 71.969763
 0.869238656 -23.1375053 0.101924095 -45.4436792 0.176460187 68.257289 0.0585966166 -23.4963269
 0.0594085274 -20.8640287 0.176460187 68.257289 0.123532203 -21.1989137 0.000475481524 -54.3988248
 0.176276284 71.969763 0.0585966166 -23.4963269 0.000475481524 -54.3988248 0.123158115 -19.5722475 
1.09e+09 0.098202569 -39.9931317 0.869177258 -23.7915185 0.059493537 -21.4301309 0.176240697 71.4575473
 0.869177258 -23.7915185 0.10236626 -46.6280598 0.176426761 67.6392237 0.058661735 -24.1285513
 0.059493537 -21.4301309 0.176426761 67.6392237 0.123666358 -21.7897178 0.000486648862 -54.6139559
 0.176240697 71.4575473 0.058661735 -24.1285513 0.000486648862 -54.6139559 0.123271457 -20.1187556 
1.12e+09 0.0984427916 -41.0310285 0.869114249 -24.4454893 0.0595779677 -21.9971959 0.176205098 70.9454728
 0.869114249 -24.4454893 0.102816474 -47.8052831 0.176393129 67.0212673 0.0587265426 -24.7613443
 0.0595779677 -21.9971959 0.176393129 67.0212673 0.123804016 -22.3797759 0.000497863512 -54.8564779
 0.176205098 70.9454728 0.0587265426 -24.7613443 0.000497863512 -54.8564779 0.123387795 -20.6646541 
1.15e+09 0.0986872029 -42.0643351 0.869049647 -25.0994161 0.0596618074 -22.5652126 0.176169495 70.4335393
 0.869049647 -25.0994161 0.103274448 -48.975307 0.176359297 66.4034206 0.0587910342 -25.3947006
 0.0596618074 -22.5652126 0.176359297 66.4034206 0.123945158 -22.9690707 0.000509121502 -55.1247228
 0.176169495 70.4335393 0.0587910342 -25.3947006 0.000509121502 -55.1247228 0.123507114 -21.2099284 
1.18e+09 0.0989356406 -43.0929917 0.868983471 -25.7532978 0.0597450444 -23.1341702 0.176133894 69.9217469
 0.868983471 -25.7532978 0.103739894 -50.1380966 0.17632527 65.7856845 0.0588552051 -26.0286152
 0.0597450444 -23.1341702 0.17632527 65.7856845 0.124089764 -23.5575855 0.000520419131 -55.4171468
 0.176133894 69.9217469 0.0588552051 -26.0286152 0.000520419131 -55.4171468 0.1236294 -21.7545641 
1.21e+09 0.0991879407 -44.1169421 0.868915741 -26.4071331 0.0598276669 -23.7040578 0.176098304 69.4100955
 0.868915741 -26.4071331 0.104212523 -51.293624 0.176291056 65.1680601 0.0589190503 -26.6630828
 0.0598276669 -23.7040578 0.176291056 65.1680601 0.124237813 -24.1453037 0.000531752943 -55.7323196
 0.176098304 69.4100955 0.0589190503 -26.6630828 0.000531752943 -55.7323196 0.12375464 -22.298547 
1.24e+09 0.0994439385 -45.1361337 0.868846475 -27.0609207 0.0599096634 -24.2748643 0.176062732 68.8985849
 0.868846475 -27.0609207 0.104692046 -52.4418683 0.17625666 64.5505481 0.0589825653 -27.2980985
 0.0599096634 -24.2748643 0.17625666 64.5505481 0.124389284 -24.7322089 0.000543119705 -56.0689151
 0.176062732 68.8985849 0.0589825653 -27.2980985 0.000543119705 -56.0689151 0.123882819 -22.8418631 
1.27e+09 0.0997034678 -46.1505171 0.868775695 -27.7146594 0.0599910224 -24.8465788 0.176027186 68.3872149
 0.868775695 -27.7146594 0.105178176 -53.5828148 0.176222087 63.9331494 0.0590457453 -27.933657
 0.0599910224 -24.8465788 0.176222087 63.9331494 0.124544156 -25.3182853 0.000554516384 -56.4257031
 0.176027186 68.3872149 0.0590457453 -27.933657 0.000554516384 -56.4257031 0.12401392 -23.3844987 
1.3e+09 0.099966362 -47.1600465 0.86870342 -28.368348 0.0600717328 -25.4191903 0.175991673 67.8759855
 0.86870342 -28.368348 0.105670623 -54.7164554 0.176187345 63.3158649 0.0591085856 -28.5697532
 0.0600717328 -25.4191903 0.176187345 63.3158649 0.124702407 -25.903517 0.00056594013 -56.8015409
 0.175991673 67.8759855 0.0591085856 -28.5697532 0.00056594013 -56.8015409 0.12414793 -23.9264401 
1.33e+09 0.100232453 -48.1646791 0.868629671 -29.0219853 0.0601517835 -25.9926877 0.1759562 67.3648962
 0.868629671 -29.0219853 0.106169102 -55.8427876 0.17615244 62.6986953 0.0591710819 -29.2063819
 0.0601517835 -25.9926877 0.17615244 62.6986953 0.124864016 -26.4878887 0.000577388257 -57.1953667
 0.1759562 67.3648962 0.0591710819 -29.2063819 0.000577388257 -57.1953667 0.124284832 -24.4676741 
1.36e+09 0.100501574 -49.1643755 0.86855447 -29.6755701 0.0602311635 -26.5670599 0.175920776 66.8539469
 0.86855447 -29.6755701 0.106673326 -56.9618148 0.176117377 62.0816414 0.0592332296 -29.8435381
 0.0602311635 -26.5670599 0.176117377 62.0816414 0.12502896 -27.0713852 0.000588858234 -57.6061925
 0.175920776 66.8539469 0.0592332296 -29.8435381 0.000588858234 -57.6061925 0.124424611 -25.0081874 
1.39e+09 0.100773555 -50.1590993 0.868477838 -30.3291013 0.0603098622 -27.142296 0.175885408 66.3431371
 0.868477838 -30.3291013 0.10718301 -58.0735455 0.176082163 61.464704 0.0592950243 -30.4812166
 0.0603098622 -27.142296 0.176082163 61.464704 0.125197215 -27.6539918 0.000600347663 -58.0330987
 0.175885408 66.3431371 0.0592950243 -30.4812166 0.000600347663 -58.0330987 0.12456725 -25.5479671 
1.42e+09 0.101048229 -51.1488174 0.868399796 -30.9825777 0.0603878689 -27.7183849 0.175850104 65.8324667
 0.868399796 -30.9825777 0.107697873 -59.1779935 0.176046805 60.8478837 0.0593564618 -31.1194123
 0.0603878689 -27.7183849 0.176046805 60.8478837 0.125368759 -28.235694 0.000611854274 -58.475228
 0.175850104 65.8324667 0.0593564618 -31.1194123 0.000611854274 -58.475228 0.124712733 -26.0870006 
1.45e+09 0.101325425 -52.1334993 0.868320368 -31.6359984 0.0604651733 -28.2953154 0.175814871 65.321935
 0.868320368 -31.6359984 0.108217632 -60.2751774 0.176011309 60.2311813 0.0594175377 -31.7581201
 0.0604651733 -28.2953154 0.176011309 60.2311813 0.125543568 -28.8164775 0.000623375911 -58.9317811
 0.175814871 65.321935 0.0594175377 -31.7581201 0.000623375911 -58.9317811 0.124861043 -26.6252752 
1.48e+09 0.101604976 -53.1131175 0.868239575 -32.2893621 0.060541765 -28.8730766 0.175779717 64.8115418
 0.868239575 -32.2893621 0.108742008 -61.3651202 0.175975682 59.6145973 0.0594782479 -32.3973348
 0.060541765 -28.8730766 0.175975682 59.6145973 0.125721618 -29.3963285 0.000634910523 -59.4020115
 0.175779717 64.8115418 0.0594782479 -32.3973348 0.000634910523 -59.4020115 0.125012163 -27.1627787 
1.51e+09 0.101886712 -54.0876473 0.868157441 -32.9426679 0.060617634 -29.4516574 0.17574465 64.3012864
 0.868157441 -32.9426679 0.109270724 -62.4478493 0.175939929 58.9981324 0.0595385883 -33.0370513
 0.060617634 -29.4516574 0.175939929 58.9981324 0.125902885 -29.9752335 0.000646456155 -59.8852221
 0.17574465 64.3012864 0.0595385883 -33.0370513 0.000646456155 -59.8852221 0.125166076 -27.6994992 
1.54e+09 0.102170465 -55.0570667 0.868073988 -33.5959147 0.0606927703 -30.0310466 0.175709677 63.7911684
 0.868073988 -33.5959147 0.109803506 -63.5233961 0.175904059 58.3817872 0.0595985548 -33.6772647
 0.0606927703 -30.0310466 0.175904059 58.3817872 0.126087343 -30.5531791 0.00065801094 -60.3807604
 0.175709677 63.7911684 0.0595985548 -33.6772647 0.00065801094 -60.3807604 0.125322764 -28.2354246 
1.57e+09 0.102456067 -56.0213562 0.867989241 -34.2491016 0.0607671641 -30.6112333 0.175674805 63.2811873
 0.867989241 -34.2491016 0.11034008 -64.5917956 0.175868076 57.7655621 0.0596581435 -34.3179697
 0.0607671641 -30.6112333 0.175868076 57.7655621 0.126274969 -31.1301523 0.000669573091 -60.8880162
 0.175674805 63.2811873 0.0596581435 -34.3179697 0.000669573091 -60.8880162 0.12548221 -28.7705436 
1.6e+09 0.10274335 -56.9804988 0.867903222 -34.9022276 0.0608408059 -31.1922063 0.175640043 62.7713423
 0.867903222 -34.9022276 0.110880177 -65.6530864 0.175831989 57.1494578 0.0597173504 -34.9591613
 0.0608408059 -31.1922063 0.175831989 57.1494578 0.126465737 -31.7061407 0.000681140897 -61.4064175
 0.175640043 62.7713423 0.0597173504 -34.9591613 0.000681140897 -61.4064175 0.125644395 -29.3048446 
1.63e+09 0.103032147 -57.9344801 0.867815956 -35.5552917 0.0609136862 -31.7739547 0.175605398 62.2616329
 0.867815956 -35.5552917 0.11142353 -66.7073105 0.175795803 56.5334747 0.0597761717 -35.6008345
 0.0609136862 -31.7739547 0.175795803 56.5334747 0.126659621 -32.2811319 0.000692712713 -61.9354281
 0.175605398 62.2616329 0.0597761717 -35.6008345 0.000692712713 -61.9354281 0.125809302 -29.8383166 
1.66e+09 0.103322292 -58.8832877 0.867727468 -36.208293 0.0609857957 -32.3564673 0.175570877 61.7520583
 0.867727468 -36.208293 0.111969874 -67.7545126 0.175759526 55.9176131 0.0598346035 -36.2429843
 0.0609857957 -32.3564673 0.175759526 55.9176131 0.126856594 -32.8551138 0.000704286959 -62.4745446
 0.175570877 61.7520583 0.0598346035 -36.2429843 0.000704286959 -62.4745446 0.125976911 -30.3709486 
1.69e+09 0.103613619 -59.8269115 0.867637781 -36.8612306 0.0610571252 -32.9397331 0.175536488 61.2426179
 0.867637781 -36.8612306 0.112518948 -68.7947405 0.175723164 55.3018737 0.0598926423 -36.8856055
 0.0610571252 -32.9397331 0.175723164 55.3018737 0.127056632 -33.4280749 0.000715862112 -63.0232946
 0.175536488 61.2426179 0.0598926423 -36.8856055 0.000715862112 -63.0232946 0.126147204 -30.9027301 
1.72e+09 0.103905963 -60.7653437 0.867546921 -37.5141038 0.0611276659 -33.5237412 0.175502238 60.7333107
 0.867546921 -37.5141038 0.113070493 -69.8280443 0.175686724 54.6862566 0.0599502843 -37.5286932
 0.0611276659 -33.5237412 0.175686724 54.6862566 0.127259707 -34.0000036 0.000727436703 -63.5812336
 0.175502238 60.7333107 0.0599502843 -37.5286932 0.000727436703 -63.5812336 0.126320163 -31.4336505 
1.75e+09 0.104199161 -61.6985784 0.867454913 -38.1669115 0.0611974088 -34.1084805 0.175468136 60.2241362
 0.867454913 -38.1669115 0.113624254 -70.8544766 0.175650213 54.0707623 0.060007526 -38.1722424
 0.0611974088 -34.1084805 0.175650213 54.0707623 0.127465792 -34.5708892 0.000739009315 -64.1479438
 0.175468136 60.2241362 0.060007526 -38.1722424 0.000739009315 -64.1479438 0.126495767 -31.9636997 
1.78e+09 0.104493051 -62.6266115 0.867361782 -38.8196532 0.0612663453 -34.69394 0.175434188 59.7150932
 0.867361782 -38.8196532 0.114179978 -71.8740923 0.175613638 53.455391 0.0600643639 -38.8162481
 0.0612663453 -34.69394 0.175613638 53.455391 0.127674861 -35.1407207 0.000750578572 -64.7230315
 0.175434188 59.7150932 0.0600643639 -38.8162481 0.000750578572 -64.7230315 0.126673998 -32.4928678 
1.81e+09 0.104787471 -63.5494409 0.867267554 -39.4723279 0.0613344669 -35.2801088 0.175400401 59.2061811
 0.867267554 -39.4723279 0.114737417 -72.8869479 0.175577006 52.840143 0.0601207944 -39.4607054
 0.0613344669 -35.2801088 0.175577006 52.840143 0.127886886 -35.7094878 0.000762143146 -65.3061259
 0.175400401 59.2061811 0.0601207944 -39.4607054 0.000762143146 -65.3061259 0.126854836 -33.0211449 
1.84e+09 0.10508226 -64.4670662 0.867172253 -40.1249349 0.0614017654 -35.8669759 0.175366784 58.6973987
 0.867172253 -40.1249349 0.115296325 -73.8931019 0.175540323 52.2250186 0.0601768142 -40.1056092
 0.0614017654 -35.8669759 0.175540323 52.2250186 0.128101839 -36.2771804 0.000773701745 -65.8968774
 0.175366784 58.6973987 0.0601768142 -40.1056092 0.000773701745 -65.8968774 0.127038262 -33.5485217 
1.87e+09 0.105377261 -65.3794888 0.867075908 -40.7774736 0.0614682324 -36.4545303 0.175333343 58.1887452
 0.867075908 -40.7774736 0.11585646 -74.8926144 0.175503597 51.6100179 0.06023242 -40.7509548
 0.0614682324 -36.4545303 0.175503597 51.6100179 0.128319692 -36.8437887 0.000785253116 -66.4949559
 0.175333343 58.1887452 0.06023242 -40.7509548 0.000785253116 -66.4949559 0.127224254 -34.074989 
1.9e+09 0.105672315 -66.2867113 0.866978542 -41.4299432 0.06153386 -37.0427612 0.175300086 57.6802196
 0.866978542 -41.4299432 0.116417583 -75.8855468 0.175466835 50.9951412 0.0602876086 -41.3967371
 0.06153386 -37.0427612 0.175466835 50.9951412 0.128540417 -37.4093034 0.000796796039 -67.1000497
 0.175300086 57.6802196 0.0602876086 -41.3967371 0.000796796039 -67.1000497 0.127412794 -34.6005376 
1.93e+09 0.105967267 -67.1887382 0.866880183 -42.0823431 0.0615986403 -37.6316576 0.17526702 57.1718206
 0.866880183 -42.0823431 0.116979458 -76.871962 0.175430043 50.3803884 0.0603423766 -42.0429513
 0.0615986403 -37.6316576 0.175430043 50.3803884 0.128763987 -37.9737152 0.000808329327 -67.7118642
 0.17526702 57.1718206 0.0603423766 -42.0429513 0.000808329327 -67.7118642 0.127603861 -35.1251588 
1.96e+09 0.106261963 -68.0855751 0.866780858 -42.7346726 0.0616625657 -38.2212088 0.175234152 56.6635473
 0.866780858 -42.7346726 0.117541854 -77.8519236 0.175393229 49.7657598 0.060396721 -42.6895926
 0.0616625657 -38.2212088 0.175393229 49.7657598 0.128990371 -38.5370153 0.000819851823 -68.3301209
 0.175234152 56.6635473 0.060396721 -42.6895926 0.000819851823 -68.3301209 0.127797433 -35.6488442 
1.99e+09 0.10655625 -68.9772291 0.866680592 -43.3869313 0.0617256285 -38.8114038 0.17520149 56.1553985
 0.866680592 -43.3869313 0.118104542 -78.8254965 0.175356399 49.1512553 0.0604506387 -43.336656
 0.0617256285 -38.8114038 0.175356399 49.1512553 0.129219542 -39.0991953 0.000831362397 -68.9545559
 0.17520149 56.1553985 0.0604506387 -43.336656 0.000831362397 -68.9545559 0.127993492 -36.1715854 
2.02e+09 0.106849978 -69.8637084 0.866579413 -44.0391184 0.0617878214 -39.4022318 0.17516904 55.647373
 0.866579413 -44.0391184 0.118667297 -79.7927462 0.175319561 48.5368749 0.0605041266 -43.9841368
 0.0617878214 -39.4022318 0.175319561 48.5368749 0.129451469 -39.6602468 0.000842859946 -69.5849195
 0.17516904 55.647373 0.0605041266 -43.9841368 0.000842859946 -69.5849195 0.128192015 -36.6933743 
2.05e+09 0.107142996 -70.7450225 0.866477347 -44.6912335 0.061849137 -39.9936822 0.175136809 55.1394696
 0.866477347 -44.6912335 0.119229899 -80.7537391 0.175282722 47.9226188 0.0605571818 -44.6320302
 0.061849137 -39.9936822 0.175282722 47.9226188 0.129686125 -40.2201621 0.000854343391 -70.2209749
 0.175136809 55.1394696 0.0605571818 -44.6320302 0.000854343391 -70.2209749 0.128392982 -37.2142033 
2.08e+09 0.107435158 -71.6211819 0.866374422 -45.3432762 0.0619095684 -40.585744 0.175104806 54.6316869
 0.866374422 -45.3432762 0.119792129 -81.708542 0.175245888 47.3084866 0.0606098015 -45.2803314
 0.0619095684 -40.585744 0.175245888 47.3084866 0.129923479 -40.7789336 0.000865811676 -70.8624975
 0.175104806 54.6316869 0.0606098015 -45.2803314 0.000865811676 -70.8624975 0.128596371 -37.7340647 
2.11e+09 0.107726318 -72.4921979 0.866270664 -45.9952458 0.0619691086 -41.1784066 0.175073035 54.1240238
 0.866270664 -45.9952458 0.120353773 -82.6572221 0.175209067 46.6944785 0.0606619827 -45.9290357
 0.0619691086 -41.1784066 0.175209067 46.6944785 0.130163503 -41.3365538 0.000877263767 -71.5092742
 0.175073035 54.1240238 0.0606619827 -45.9290357 0.000877263767 -71.5092742 0.128802161 -38.2529511 
2.14e+09 0.108016333 -73.3580831 0.866166101 -46.6471421 0.0620277508 -41.7716594 0.175041505 53.6164788
 0.866166101 -46.6471421 0.120914622 -83.599847 0.175172265 46.0805941 0.0607137226 -46.5781383
 0.0620277508 -41.7716594 0.175172265 46.0805941 0.130406165 -41.893016 0.000888698651 -72.1611025
 0.175041505 53.6164788 0.0607137226 -46.5781383 0.000888698651 -72.1611025 0.129010332 -38.7708555 
2.17e+09 0.108305061 -74.2188508 0.86606076 -47.2989645 0.0620854883 -42.3654915 0.175010223 53.1090505
 0.86606076 -47.2989645 0.121474467 -84.5364846 0.17513549 45.4668335 0.0607650186 -47.2276345
 0.0620854883 -42.3654915 0.17513549 45.4668335 0.130651435 -42.4483133 0.000900115333 -72.81779
 0.175010223 53.1090505 0.0607650186 -47.2276345 0.000900115333 -72.81779 0.12922086 -39.287771 
2.2e+09 0.108592362 -75.0745149 0.865954669 -47.9507127 0.0621423147 -42.9598924 0.174979194 52.6017376
 0.865954669 -47.9507127 0.122033106 -85.4672028 0.175098749 44.8531962 0.0608158679 -47.8775197
 0.0621423147 -42.9598924 0.175098749 44.8531962 0.130899285 -43.0024394 0.000911512836 -73.4791539
 0.174979194 52.6017376 0.0608158679 -47.8775197 0.000911512836 -73.4791539 0.129433725 -39.803691 
2.23e+09 0.1088781 -75.9250902 0.865847854 -48.6023864 0.0621982236 -43.5548516 0.174948426 52.0945385
 0.865847854 -48.6023864 0.12259034 -86.3920696 0.175062048 44.2396822 0.060866268 -48.5277893
 0.0621982236 -43.5548516 0.175062048 44.2396822 0.131149683 -43.5553883 0.000922890201 -74.1450199
 0.174948426 52.0945385 0.060866268 -48.5277893 0.000922890201 -74.1450199 0.129648904 -40.3186091 
2.26e+09 0.109162138 -76.7705921 0.865740345 -49.2539853 0.0622532089 -44.1503583 0.174917925 51.5874518
 0.865740345 -49.2539853 0.123145971 -87.3111529 0.175025395 43.626291 0.0609162163 -49.1784385
 0.0622532089 -44.1503583 0.175025395 43.626291 0.131402599 -44.107154 0.000934246486 -74.8152224
 0.174917925 51.5874518 0.0609162163 -49.1784385 0.000934246486 -74.8152224 0.129866375 -40.832519 
2.29e+09 0.109444343 -77.6110367 0.865632167 -49.905509 0.0623072645 -44.7464022 0.174887698 51.0804759
 0.865632167 -49.905509 0.123699808 -88.2245205 0.174988796 43.0130225 0.0609657102 -49.8294629
 0.0623072645 -44.7464022 0.174988796 43.0130225 0.131658002 -44.6577311 0.000945580762 -75.4896034
 0.174887698 51.0804759 0.0609657102 -49.8294629 0.000945580762 -75.4896034 0.130086117 -41.3454149 
2.32e+09 0.109724585 -78.4464405 0.865523349 -50.5569574 0.0623603845 -45.3429726 0.174857752 50.5736092
 0.865523349 -50.5569574 0.124251661 -89.1322401 0.174952259 42.3998761 0.0610147473 -50.4808578
 0.0623603845 -45.3429726 0.174952259 42.3998761 0.131915861 -45.2071144 0.000956892117 -76.1680124
 0.174857752 50.5736092 0.0610147473 -50.4808578 0.000956892117 -76.1680124 0.130308108 -41.8572911 
2.35e+09 0.110002733 -79.2768204 0.865413918 -51.2083303 0.0624125632 -45.9400592 0.174828092 50.0668501
 0.865413918 -51.2083303 0.124801345 -90.0343789 0.174915791 41.7868515 0.0610633252 -51.1326187
 0.0624125632 -45.9400592 0.174915791 41.7868515 0.132176146 -45.7552989 0.000968179651 -76.8503058
 0.174828092 50.0668501 0.0610633252 -51.1326187 0.000968179651 -76.8503058 0.130532323 -42.3681421 
2.38e+09 0.110278663 -80.1021939 0.865303902 -51.8596274 0.0624637949 -46.5376515 0.174798725 49.5601969
 0.865303902 -51.8596274 0.125348679 -90.9310039 0.174879398 41.1739483 0.0611114416 -51.7847411
 0.0624637949 -46.5376515 0.174879398 41.1739483 0.132438825 -46.30228 0.000979442479 -77.5363465
 0.174798725 49.5601969 0.0611114416 -51.7847411 0.000979442479 -77.5363465 0.130758743 -42.8779626 
2.41e+09 0.110552249 -80.9225787 0.865193329 -52.5108486 0.0625140742 -47.1357391 0.174769658 49.053648
 0.865193329 -52.5108486 0.125893484 -91.8221817 0.174843087 40.561166 0.0611590941 -52.4372205
 0.0625140742 -47.1357391 0.174843087 40.561166 0.132703867 -46.8480533 0.000990679726 -78.2260038
 0.174769658 49.053648 0.0611590941 -52.4372205 0.000990679726 -78.2260038 0.130987343 -43.3867475 
2.44e+09 0.110823369 -81.7379929 0.865082226 -53.1619938 0.0625633958 -47.7343117 0.174740896 48.5472015
 0.865082226 -53.1619938 0.126435585 -92.7079785 0.174806866 39.9485041 0.0612062805 -53.0900525
 0.0625633958 -47.7343117 0.174806866 39.9485041 0.132971242 -47.3926145 0.00100189053 -78.9191525
 0.174740896 48.5472015 0.0612062805 -53.0900525 0.00100189053 -78.9191525 0.131218101 -43.8944921 
2.47e+09 0.111091903 -82.5484548 0.864970621 -53.8130628 0.0626117545 -48.333359 0.174712446 48.0408559
 0.864970621 -53.8130628 0.126974811 -93.5884598 0.17477074 39.335962 0.0612529985 -53.7432326
 0.0626117545 -48.333359 0.17477074 39.335962 0.133240917 -47.93596 0.00101307405 -79.6156731
 0.174712446 48.0408559 0.0612529985 -53.7432326 0.00101307405 -79.6156731 0.131450994 -44.4011918 
2.5e+09 0.111357735 -83.3539828 0.864858542 -54.4640558 0.0626591453 -48.9328705 0.174684313 47.5346091
 0.864858542 -54.4640558 0.127510993 -94.4636908 0.174734718 38.7235391 0.0612992461 -54.3967564
 0.0626591453 -48.9328705 0.174734718 38.7235391 0.133512861 -48.4780861 0.00102422943 -80.3154514
 0.174684313 47.5346091 0.0612992461 -54.3967564 0.00102422943 -80.3154514 0.131686 -44.9068422 
2.53e+09 0.111620749 -84.1545957 0.864746015 -55.1149726 0.0627055632 -49.5328363 0.174656503 47.0284595
 0.864746015 -55.1149726 0.128043968 -95.3337358 0.174698805 38.1112348 0.0613450211 -55.0506196
 0.0627055632 -49.5328363 0.174698805 38.1112348 0.133787042 -49.0189895 0.00103535586 -81.0183779
 0.174656503 47.0284595 0.0613450211 -55.0506196 0.00103535586 -81.0183779 0.131923096 -45.4114392 
2.56e+09 0.111880832 -84.9503122 0.864633069 -55.7658132 0.0627510036 -50.1332459 0.174629023 46.5224051
 0.864633069 -55.7658132 0.128573574 -96.1986589 0.174663008 37.4990485 0.0613903214 -55.7048179
 0.0627510036 -50.1332459 0.174663008 37.4990485 0.134063429 -49.5586671 0.0010464525 -81.7243479
 0.174629023 46.5224051 0.0613903214 -55.7048179 0.0010464525 -81.7243479 0.132162258 -45.9149787 
2.59e+09 0.112137875 -85.7411511 0.864519731 -56.4165777 0.0627954618 -50.7340893 0.174601878 46.016444
 0.864519731 -56.4165777 0.129099654 -97.058523 0.174627335 36.8869795 0.0614351451 -56.3593468
 0.0627954618 -50.7340893 0.174627335 36.8869795 0.13434199 -50.0971161 0.00105751857 -82.433261
 0.174601878 46.016444 0.0614351451 -56.3593468 0.00105751857 -82.433261 0.132403464 -46.4174571 
2.62e+09 0.112391769 -86.5271312 0.864406029 -57.0672662 0.0628389333 -51.3353563 0.174575074 45.5105743
 0.864406029 -57.0672662 0.129622053 -97.9133908 0.174591791 36.2750269 0.0614794902 -57.0142022
 0.0628389333 -51.3353563 0.174591791 36.2750269 0.134622694 -50.634334 0.00106855325 -83.1450211
 0.174575074 45.5105743 0.0614794902 -57.0142022 0.00106855325 -83.1450211 0.132646691 -46.9188708 
2.65e+09 0.112642409 -87.3082715 0.864291989 -57.7178787 0.0628814138 -51.9370368 0.174548615 45.004794
 0.864291989 -57.7178787 0.13014062 -98.7633239 0.174556384 35.6631901 0.0615233547 -57.6693798
 0.0628814138 -51.9370368 0.174556384 35.6631901 0.134905507 -51.1703184 0.00107955576 -83.8595359
 0.174548615 45.004794 0.0615233547 -57.6693798 0.00107955576 -83.8595359 0.132891915 -47.4192166 
2.68e+09 0.112889693 -88.0845907 0.864177638 -58.3684155 0.0629228991 -52.5391208 0.174522509 44.4991011
 0.864177638 -58.3684155 0.130655207 -99.6083834 0.17452112 35.0514683 0.0615667367 -58.3248753
 0.0629228991 -52.5391208 0.17452112 35.0514683 0.135190399 -51.7050672 0.00109052531 -84.5767169
 0.174522509 44.4991011 0.0615667367 -58.3248753 0.00109052531 -84.5767169 0.133139113 -47.9184912 
2.71e+09 0.113133519 -88.8561074 0.864063005 -59.0188766 0.062963385 -53.1415983 0.174496759 43.9934936
 0.864063005 -59.0188766 0.131165671 -100.448629 0.174486005 34.4398605 0.0616096345 -58.9806846
 0.062963385 -53.1415983 0.174486005 34.4398605 0.135477338 -52.2385787 0.00110146113 -85.2964793
 0.174496759 43.9934936 0.0616096345 -58.9806846 0.00110146113 -85.2964793 0.133388261 -48.4166918 
2.74e+09 0.113373791 -89.6228403 0.863948116 -59.6692623 0.0630028677 -53.7444592 0.174471371 43.4879693
 0.863948116 -59.6692623 0.131671868 -101.284121 0.174451047 33.828366 0.0616520461 -59.6368035
 0.0630028677 -53.7444592 0.174451047 33.828366 0.135766291 -52.7708512 0.00111236246 -86.0187415
 0.174471371 43.4879693 0.0616520461 -59.6368035 0.00111236246 -86.0187415 0.133639337 -48.9138158 
2.77e+09 0.113610412 -90.3848076 0.863832998 -60.3195728 0.0630413434 -54.3476937 0.17444635 42.9825263
 0.863832998 -60.3195728 0.132173663 -102.114918 0.174416251 33.2169838 0.06169397 -60.2932279
 0.0630413434 -54.3476937 0.174416251 33.2169838 0.136057226 -53.3018833 0.00112322855 -86.7434251
 0.17444635 42.9825263 0.06169397 -60.2932279 0.00112322855 -86.7434251 0.133892317 -49.4098605 
2.8e+09 0.113843291 -91.1420278 0.863717677 -60.9698083 0.0630788083 -54.9512918 0.174421702 42.4771623
 0.863717677 -60.9698083 0.132670919 -102.941077 0.174381624 32.605713 0.0617354043 -60.9499536
 0.0630788083 -54.9512918 0.174381624 32.605713 0.136350111 -53.831674 0.00113405864 -87.4704548
 0.174421702 42.4771623 0.0617354043 -60.9499536 0.00113405864 -87.4704548 0.134147178 -49.9048236 
2.83e+09 0.114072336 -91.8945186 0.863602181 -61.6199692 0.0631152589 -55.5552437 0.174397431 41.9718752
 0.863602181 -61.6199692 0.133163505 -103.762654 0.174347172 31.9945525 0.0617763473 -61.6069766
 0.0631152589 -55.5552437 0.174347172 31.9945525 0.136644914 -54.3602222 0.00114485199 -88.1997582
 0.174397431 41.9718752 0.0617763473 -61.6069766 0.00114485199 -88.1997582 0.134403896 -50.3987031 
2.86e+09 0.11429746 -92.6422979 0.863486535 -62.2700558 0.0631506919 -56.1595395 0.174373542 41.4666629
 0.863486535 -62.2700558 0.133651292 -104.579708 0.174312902 31.3835015 0.0618167975 -62.2642929
 0.0631506919 -56.1595395 0.174312902 31.3835015 0.136941603 -54.8875273 0.00115560786 -88.9312656
 0.174373542 41.4666629 0.0618167975 -62.2642929 0.00115560786 -88.9312656 0.134662448 -50.891497 
2.89e+09 0.114518577 -93.3853831 0.863370767 -62.9200684 0.0631851038 -56.7641695 0.174350039 40.961523
 0.863370767 -62.9200684 0.134134154 -105.392291 0.174278819 30.7725587 0.0618567532 -62.9218983
 0.0631851038 -56.7641695 0.174278819 30.7725587 0.137240145 -55.4135887 0.00116632555 -89.66491
 0.174350039 40.961523 0.0618567532 -62.9218983 0.00116632555 -89.66491 0.134922809 -51.3832036 
2.92e+09 0.114735606 -94.1237914 0.863254901 -63.5700074 0.0632184915 -57.3691239 0.174326928 40.4564534
 0.863254901 -63.5700074 0.13461197 -106.200459 0.174244931 30.1617232 0.0618962129 -63.579789
 0.0632184915 -57.3691239 0.174244931 30.1617232 0.137540508 -55.9384063 0.00117700431 -90.4006268
 0.174326928 40.4564534 0.0618962129 -63.579789 0.00117700431 -90.4006268 0.135184957 -51.8738212 
2.95e+09 0.114948465 -94.8575396 0.863138965 -64.2198732 0.063250852 -57.9743929 0.174304213 39.9514518
 0.863138965 -64.2198732 0.135084619 -107.004265 0.174211243 29.5509938 0.0619351751 -64.237961
 0.063250852 -57.9743929 0.174211243 29.5509938 0.137842661 -56.4619798 0.00118764344 -91.1383538
 0.174304213 39.9514518 0.0619351751 -64.237961 0.00118764344 -91.1383538 0.135448869 -52.3633485 
2.98e+09 0.115157078 -95.5866441 0.863022983 -64.8696663 0.0632821824 -58.5799669 0.174281897 39.4465159
 0.863022983 -64.8696663 0.135551985 -107.803762 0.174177761 28.9403694 0.0619736381 -64.8964103
 0.0632821824 -58.5799669 0.174177761 28.9403694 0.138146571 -56.9843095 0.00119824224 -91.8780312
 0.174281897 39.4465159 0.0619736381 -64.8964103 0.00119824224 -91.8780312 0.135714519 -52.8517844 
3.01e+09 0.11536137 -96.3111212 0.862906983 -65.5193871 0.0633124799 -59.1858363 0.174259986 38.9416434
 0.862906983 -65.5193871 0.136013955 -108.599001 0.174144491 28.3298488 0.0620116007 -65.555133
 0.0633124799 -59.1858363 0.174144491 28.3298488 0.138452205 -57.5053956 0.0012088 -92.619601
 0.174259986 38.9416434 0.0620116007 -65.555133 0.0012088 -92.619601 0.135981886 -53.3391277 
3.04e+09 0.115561267 -97.0309864 0.862790988 -66.169036 0.0633417417 -59.7919914 0.174238484 38.4368318
 0.862790988 -66.169036 0.136470418 -109.390033 0.174111439 27.7194308 0.0620490614 -66.2141253
 0.0633417417 -59.7919914 0.174111439 27.7194308 0.138759531 -58.0252387 0.00121931604 -93.3630075
 0.174238484 38.4368318 0.0620490614 -66.2141253 0.00121931604 -93.3630075 0.136250944 -53.8253776 
3.07e+09 0.115756702 -97.7462552 0.862675024 -66.8186137 0.0633699655 -60.3984227 0.174217393 37.9320789
 0.862675024 -66.8186137 0.136921266 -110.176907 0.174078612 27.1091142 0.0620860187 -66.8733833
 0.0633699655 -60.3984227 0.174078612 27.1091142 0.139068517 -58.5438394 0.00122978966 -94.1081971
 0.174217393 37.9320789 0.0620860187 -66.8733833 0.00122978966 -94.1081971 0.136521671 -54.3105336 
3.1e+09 0.115947606 -98.4569423 0.862559117 -67.4681207 0.0633971486 -61.0051207 0.174196719 37.4273823
 0.862559117 -67.4681207 0.137366394 -110.959672 0.174046014 26.4988976 0.0621224714 -67.5329033
 0.0633971486 -61.0051207 0.174046014 26.4988976 0.139379132 -59.0611987 0.00124022018 -94.8551177
 0.174196719 37.4273823 0.0621224714 -67.5329033 0.00124022018 -94.8551177 0.136794043 -54.7945949 
3.13e+09 0.116133915 -99.1630622 0.86244329 -68.1175576 0.0634232888 -61.6120757 0.174176465 36.9227395
 0.86244329 -68.1175576 0.1378057 -111.738378 0.174013652 25.8887797 0.0621584181 -68.1926813
 0.0634232888 -61.6120757 0.174013652 25.8887797 0.139691341 -59.5773175 0.00125060694 -95.6037192
 0.174176465 36.9227395 0.0621584181 -68.1926813 0.00125060694 -95.6037192 0.137068036 -55.2775614 
3.16e+09 0.116315566 -99.8646289 0.862327569 -68.7669249 0.063448384 -62.2192784 0.174156635 36.4181481
 0.862327569 -68.7669249 0.138239085 -112.513069 0.173981531 25.2787594 0.0621938575 -68.8527137
 0.063448384 -62.2192784 0.173981531 25.2787594 0.140005115 -60.0921972 0.00126094926 -96.3539533
 0.174156635 36.4181481 0.0621938575 -68.8527137 0.00126094926 -96.3539533 0.137343626 -55.7594327 
3.19e+09 0.116492502 -100.561656 0.862211978 -69.4162233 0.063472432 -62.8267193 0.174137232 35.9136057
 0.862211978 -69.4162233 0.138666453 -113.283793 0.173949657 24.668835 0.0622287884 -69.5129967
 0.063472432 -62.8267193 0.173949657 24.668835 0.14032042 -60.6058392 0.00127124648 -97.1057731
 0.174137232 35.9136057 0.0622287884 -69.5129967 0.00127124648 -97.1057731 0.137620791 -56.240209 