! Simulation of a 3-port directional coupler
! P1 and P2 are the thru ports, P3 is coupled to P2
# hz S ma R 50
1e+09 0.0972134872 -37.0639801 0.870729939 -21.8213237 0.0592422126 -19.7370353
 0.870729939 -21.8213237 0.101080318 -43.0625161 0.176525037 69.4940257
 0.0592422126 -19.7370353 0.176525037 69.4940257 0.123274466 -20.01514 
1.03e+09 0.0974422271 -38.1207696 0.870669854 -22.475336 0.0593284791 -20.3011907
 0.870669854 -22.475336 0.101505905 -44.2612021 0.176492 68.8757483
 0.0593284791 -20.3011907 0.176492 68.8757483 0.123401557 -20.607384 
1.06e+09 0.0976756515 -39.1731139 0.870608127 -23.1293063 0.0594141903 -20.8663312
 0.870608127 -23.1293063 0.10194012 -45.4528336 0.176458747 68.2575778
 0.0594141903 -20.8663312 0.176458747 68.2575778 0.123532189 -21.198917 
1.09e+09 0.0979136001 -40.2209422 0.870544778 -23.7832331 0.0594993341 -21.4324459
 0.870544778 -23.7832331 0.102382675 -46.6373532 0.176425282 67.6395152
 0.0594993341 -21.4324459 0.176425282 67.6395152 0.123666344 -21.7897214 
1.12e+09 0.0981559109 -41.2641875 0.870479825 -24.4371151 0.0595838981 -21.9995238
 0.870479825 -24.4371151 0.102833284 -47.814711 0.176391611 67.0215615
 0.0595838981 -21.9995238 0.176391611 67.0215615 0.123804002 -22.3797797 
1.15e+09 0.0984024201 -42.3027866 0.870413285 -25.0909511 0.0596678704 -22.5675542
 0.870413285 -25.0909511 0.103291659 -48.9848651 0.17635774 66.4037175
 0.0596678704 -22.5675542 0.17635774 66.4037175 0.123945144 -22.9690748 
1.18e+09 0.0986529624 -43.3366801 0.870345179 -25.7447397 0.0597512392 -23.1365259
 0.870345179 -25.7447397 0.103757509 -50.1477806 0.176323674 65.7859844
 0.0597512392 -23.1365259 0.176323674 65.7859844 0.124089749 -23.5575898 
1.21e+09 0.0989073713 -44.365812 0.870275526 -26.3984797 0.0598339927 -23.7064281
 0.870275526 -26.3984797 0.104230548 -51.3034298 0.176289421 65.1683629
 0.0598339927 -23.7064281 0.176289421 65.1683629 0.124237797 -24.1453082 
1.24e+09 0.0991654791 -45.39013 0.870204347 -27.0521699 0.0599161194 -24.2772497
 0.870204347 -27.0521699 0.104710485 -52.4517919 0.176254986 64.550854
 0.0599161194 -24.2772497 0.176254986 64.550854 0.124389268 -24.7322137 
1.27e+09 0.099427117 -46.4095852 0.870131661 -27.7058089 0.0599976079 -24.8489797
 0.870131661 -27.7058089 0.105197032 -53.5928524 0.176220375 63.9334585
 0.0599976079 -24.8489797 0.176220375 63.9334585 0.124544139 -25.3182903 
1.3e+09 0.0996921154 -47.4241322 0.87005749 -28.3593956 0.0600784469 -25.421607
 0.87005749 -28.3593956 0.105689902 -54.7266032 0.176185594 63.3161773
 0.0600784469 -25.421607 0.176185594 63.3161773 0.12470239 -25.9035223 
1.33e+09 0.099960304 -48.4337288 0.869981855 -29.0129287 0.0601586256 -25.9951207
 0.869981855 -29.0129287 0.106188807 -55.853042 0.17615065 62.699011
 0.0601586256 -25.9951207 0.17615065 62.699011 0.124863998 -26.4878942 
1.36e+09 0.100231512 -49.4383363 0.869904777 -29.6664072 0.0602381328 -26.5695095
 0.869904777 -29.6664072 0.106693461 -56.9721722 0.176115549 62.0819606
 0.0602381328 -26.5695095 0.176115549 62.0819606 0.125028941 -27.071391 
1.39e+09 0.100505568 -50.437919 0.869826279 -30.3198299 0.060316958 -27.1447625
 0.869826279 -30.3198299 0.10720358 -58.0840027 0.176080296 61.4650267
 0.060316958 -27.1447625 0.176080296 61.4650267 0.125197196 -27.6539979 
1.42e+09 0.100782301 -51.4324442 0.869746383 -30.9731956 0.0603950905 -27.7208686
 0.869746383 -30.9731956 0.107718881 -59.1885472 0.1760449 60.84821
 0.0603950905 -27.7208686 0.1760449 60.84821 0.125368739 -28.2357003 
1.45e+09 0.101061539 -52.4218823 0.869665111 -31.6265033 0.06047252 -28.2978166
 0.869665111 -31.6265033 0.108239082 -60.2858245 0.176009365 60.2315113
 0.06047252 -28.2978166 0.176009365 60.2315113 0.125543547 -28.8164841 
1.48e+09 0.101343111 -53.4062068 0.869582486 -32.2797519 0.0605492361 -28.8755954
 0.869582486 -32.2797519 0.108763905 -61.3758577 0.175973699 59.614931
 0.0605492361 -28.8755954 0.175973699 59.614931 0.125721597 -29.3963354 
1.51e+09 0.101626845 -54.3853936 0.869498533 -32.9329404 0.0606252288 -29.4541941
 0.869498533 -32.9329404 0.109293071 -62.4586745 0.175937908 58.99847
 0.0606252288 -29.4541941 0.175937908 58.99847 0.125902863 -29.9752406 
1.54e+09 0.101912569 -55.3594216 0.869413274 -33.5860677 0.0607004882 -30.0336014
 0.869413274 -33.5860677 0.109826306 -63.5343061 0.175901998 58.3821287
 0.0607004882 -30.0336014 0.175901998 58.3821287 0.126087321 -30.5531865 
1.57e+09 0.102200114 -56.3282723 0.869326733 -34.2391329 0.0607750045 -30.6138062
 0.869326733 -34.2391329 0.110363338 -64.602788 0.175865977 57.7659077
 0.0607750045 -30.6138062 0.175865977 57.7659077 0.126274946 -31.13016 
1.6e+09 0.102489308 -57.2919297 0.869238935 -34.8921349 0.0608487682 -31.1947976
 0.869238935 -34.8921349 0.110903896 -65.6641588 0.175829851 57.1498074
 0.0608487682 -31.1947976 0.175829851 57.1498074 0.126465713 -31.7061487 
1.63e+09 0.102779983 -58.2503801 0.869149904 -35.5450729 0.0609217697 -31.7765644
 0.869149904 -35.5450729 0.111447713 -66.7184605 0.175793627 56.5338284
 0.0609217697 -31.7765644 0.175793627 56.5338284 0.126659596 -32.2811401 
1.66e+09 0.103071969 -59.2036123 0.869059665 -36.1979459 0.0609939999 -32.3590956
 0.869059665 -36.1979459 0.111994526 -67.7657381 0.175757312 55.9179712
 0.0609939999 -32.3590956 0.175757312 55.9179712 0.126856569 -32.8551223 
1.69e+09 0.103365098 -60.1516172 0.868968244 -36.850753 0.0610654495 -32.9423801
 0.868968244 -36.850753 0.112544071 -68.8060394 0.175720911 55.302236
 0.0610654495 -32.9423801 0.175720911 55.302236 0.127056606 -33.4280837 
1.72e+09 0.103659203 -61.0943879 0.868875664 -37.5034935 0.0611361097 -33.5264068
 0.868875664 -37.5034935 0.113096091 -69.8394148 0.175684433 54.6866234
 0.0611361097 -33.5264068 0.175684433 54.6866234 0.12725968 -34.0000127 
1.75e+09 0.103954117 -62.0319197 0.868781953 -38.1561665 0.0612059716 -34.1111648
 0.868781953 -38.1561665 0.113650331 -70.8659169 0.175647884 54.0711335
 0.0612059716 -34.1111648 0.175647884 54.0711335 0.127465765 -34.5708985 
1.78e+09 0.104249677 -62.9642095 0.868687135 -38.8087711 0.0612750266 -34.696643
 0.868687135 -38.8087711 0.114206538 -71.8856007 0.17561127 53.4557668
 0.0612750266 -34.696643 0.17561127 53.4557668 0.127674833 -35.1407303 
1.81e+09 0.104545717 -63.8912563 0.868591237 -39.4613066 0.0613432662 -35.2828305
 0.868591237 -39.4613066 0.114764463 -72.8985229 0.175574599 52.8405235
 0.0613432662 -35.2828305 0.175574599 52.8405235 0.127886857 -35.7094977 
1.84e+09 0.104842076 -64.8130607 0.868494285 -40.1137724 0.0614106822 -35.8697162
 0.868494285 -40.1137724 0.11532386 -73.9047421 0.175537878 52.2254038
 0.0614106822 -35.8697162 0.175537878 52.2254038 0.128101809 -36.2771906 
1.87e+09 0.105138593 -65.7296253 0.868396305 -40.7661676 0.0614772663 -36.4572893
 0.868396305 -40.7661676 0.115884488 -74.9043186 0.175501114 51.610408
 0.0614772663 -36.4572893 0.175501114 51.610408 0.128319661 -36.8437992 
1.9e+09 0.105435106 -66.6409538 0.868297323 -41.4184916 0.0615430106 -37.0455388
 0.868297323 -41.4184916 0.116446107 -75.8973139 0.175464313 50.9955361
 0.0615430106 -37.0455388 0.175464313 50.9955361 0.128540386 -37.4093142 
1.93e+09 0.10573146 -67.5470517 0.868197368 -42.0707438 0.0616079072 -37.6344537
 0.868197368 -42.0707438 0.117008482 -76.8837908 0.175427483 50.3807883
 0.0616079072 -37.6344537 0.175427483 50.3807883 0.128763954 -37.9737263 
1.96e+09 0.106027496 -68.4479258 0.868096465 -42.7229235 0.0616719484 -38.2240233
 0.868096465 -42.7229235 0.117571381 -77.8638133 0.17539063 49.7661647
 0.0616719484 -38.2240233 0.17539063 49.7661647 0.128990338 -38.5370267 
1.99e+09 0.10632306 -69.3435842 0.867994642 -43.3750302 0.0617351267 -38.8142367
 0.867994642 -43.3750302 0.118134576 -78.8374463 0.175353762 49.1516653
 0.0617351267 -38.8142367 0.175353762 49.1516653 0.129219507 -39.0992069 
2.02e+09 0.106617998 -70.2340364 0.867891926 -44.0270633 0.0617974347 -39.405083
 0.867891926 -44.0270633 0.118697842 -79.8047555 0.175316886 48.5372902
 0.0617974347 -39.405083 0.175316886 48.5372902 0.129451434 -39.6602588 
2.05e+09 0.10691216 -71.1192928 0.867788344 -44.6790222 0.0618588652 -39.9965515
 0.867788344 -44.6790222 0.119260957 -80.7658074 0.175280008 47.9230393
 0.0618588652 -39.9965515 0.175280008 47.9230393 0.129686089 -40.2201743 
2.08e+09 0.107205396 -71.999365 0.867683924 -45.3309066 0.0619194112 -40.5886313
 0.867683924 -45.3309066 0.119823704 -81.7206687 0.175243135 47.3089125
 0.0619194112 -40.5886313 0.175243135 47.3089125 0.129923442 -40.7789461 
2.11e+09 0.107497558 -72.8742656 0.867578693 -45.982716 0.0619790656 -41.1813118
 0.867578693 -45.982716 0.12038587 -82.669407 0.175206275 46.6949098
 0.0619790656 -41.1813118 0.175206275 46.6949098 0.130163465 -41.3365666 
2.14e+09 0.1077885 -73.744008 0.867472679 -46.6344498 0.0620378218 -41.7745823
 0.867472679 -46.6344498 0.120947242 -83.61209 0.175169435 46.081031
 0.0620378218 -41.7745823 0.175169435 46.081031 0.130406125 -41.893029 
2.17e+09 0.108078079 -74.6086066 0.86736591 -47.2861078 0.0620956732 -42.368432
 0.86736591 -47.2861078 0.121507616 -84.5487855 0.175132621 45.4672759
 0.0620956732 -42.368432 0.175132621 45.4672759 0.130651395 -42.4483266 
2.2e+09 0.108366153 -75.4680766 0.867258414 -47.9376896 0.0621526132 -42.9628504
 0.867258414 -47.9376896 0.122066786 -85.4795617 0.175095841 44.8536443
 0.0621526132 -42.9628504 0.175095841 44.8536443 0.130899244 -43.002453 
2.23e+09 0.108652582 -76.3224337 0.867150219 -48.5891948 0.0622086355 -43.5578268
 0.867150219 -48.5891948 0.122624555 -86.4044866 0.175059102 44.240136
 0.0622086355 -43.5578268 0.175059102 44.240136 0.131149641 -43.5554021 
2.26e+09 0.108937229 -77.1716943 0.867041352 -49.2406231 0.062263734 -44.1533507
 0.867041352 -49.2406231 0.123180724 -87.3236283 0.17502241 43.6267507
 0.062263734 -44.1533507 0.17502241 43.6267507 0.131402556 -44.1071682 
2.29e+09 0.109219958 -78.0158755 0.866931842 -49.8919743 0.0623179028 -44.7494115
 0.866931842 -49.8919743 0.123735103 -88.2370546 0.174985773 43.0134881
 0.0623179028 -44.7494115 0.174985773 43.0134881 0.131657957 -44.6577456 
2.32e+09 0.109500637 -78.8549949 0.866821716 -50.5432482 0.0623711358 -45.3459987
 0.866821716 -50.5432482 0.124287502 -89.1448334 0.174949197 42.4003477
 0.0623711358 -45.3459987 0.174949197 42.4003477 0.131915816 -45.2071291 
2.35e+09 0.109779134 -79.6890703 0.866711004 -51.1944446 0.0624234274 -45.9431019
 0.866711004 -51.1944446 0.124837736 -90.0470319 0.17491269 41.7873292
 0.0624234274 -45.9431019 0.17491269 41.7873292 0.132176099 -45.7553139 
2.38e+09 0.110055321 -80.5181202 0.866599732 -51.8455632 0.062474772 -46.5407106
 0.866599732 -51.8455632 0.125385623 -90.9437174 0.174876258 41.1744322
 0.062474772 -46.5407106 0.174876258 41.1744322 0.132438777 -46.3022952 
2.41e+09 0.110329072 -81.3421633 0.866487929 -52.496604 0.0625251641 -47.1388145
 0.866487929 -52.496604 0.125930985 -91.8349565 0.174839909 40.5616562
 0.0625251641 -47.1388145 0.174839909 40.5616562 0.132703819 -46.8480688 
2.44e+09 0.110600261 -82.1612185 0.866375624 -53.1475668 0.0625745986 -47.7374031
 0.866375624 -53.1475668 0.126473646 -92.7208154 0.174803648 39.9490006
 0.0625745986 -47.7374031 0.174803648 39.9490006 0.132971192 -47.3926303 
2.47e+09 0.110868769 -82.9753051 0.866262844 -53.7984516 0.0626230701 -48.3364662
 0.866262844 -53.7984516 0.127013435 -93.6013598 0.174767484 39.3364649
 0.0626230701 -48.3364662 0.174767484 39.3364649 0.133240866 -47.935976 
2.5e+09 0.111134475 -83.7844425 0.866149616 -54.4492584 0.0626705738 -48.9359935
 0.866149616 -54.4492584 0.127550185 -94.476655 0.174731422 38.7240485
 0.0626705738 -48.9359935 0.174731422 38.7240485 0.133512808 -48.4781024 
2.53e+09 0.111397262 -84.5886502 0.866035971 -55.0999871 0.0627171047 -49.5359748
 0.866035971 -55.0999871 0.128083731 -95.3467654 0.17469547 38.1117509
 0.0627171047 -49.5359748 0.17469547 38.1117509 0.133786988 -49.019006 
2.56e+09 0.111657016 -85.3879479 0.865921934 -55.7506378 0.0627626581 -50.1363998
 0.865921934 -55.7506378 0.128613912 -96.2117552 0.174659634 37.4995713
 0.0627626581 -50.1363998 0.174659634 37.4995713 0.134063374 -49.5586839 
2.59e+09 0.111913625 -86.1823551 0.865807534 -56.4012105 0.0628072295 -50.7372583
 0.865807534 -56.4012105 0.129140571 -97.0716874 0.174623921 36.887509
 0.0628072295 -50.7372583 0.174623921 36.887509 0.134341934 -50.0971331 
2.62e+09 0.11216698 -86.9718916 0.865692799 -57.0517054 0.0628508143 -51.3385404
 0.865692799 -57.0517054 0.129663552 -97.9266248 0.174588338 36.2755634
 0.0628508143 -51.3385404 0.174588338 36.2755634 0.134622636 -50.6343512 
2.65e+09 0.112416972 -87.7565769 0.865577757 -57.7021225 0.0628934082 -51.9402358
 0.865577757 -57.7021225 0.130182704 -98.7766291 0.174552892 35.6637336
 0.0628934082 -51.9402358 0.174552892 35.6637336 0.134905449 -51.1703359 
2.68e+09 0.112663497 -88.5364307 0.865462436 -58.352462 0.0629350071 -52.5423345
 0.865462436 -58.352462 0.130697881 -99.6217614 0.174517588 35.0520189
 0.0629350071 -52.5423345 0.174517588 35.0520189 0.135190339 -51.705085 
2.71e+09 0.112906454 -89.3114723 0.865346862 -59.0027241 0.0629756069 -53.1448265
 0.865346862 -59.0027241 0.131208938 -100.462082 0.174482434 34.4404183
 0.0629756069 -53.1448265 0.174482434 34.4404183 0.135477276 -52.2385967 
2.74e+09 0.113145742 -90.081721 0.865231063 -59.652909 0.0630152037 -53.7477019
 0.865231063 -59.652909 0.131715732 -101.297651 0.174447435 33.8289311
 0.0630152037 -53.7477019 0.174447435 33.8289311 0.135766228 -52.7708694 
2.77e+09 0.113381264 -90.847196 0.865115067 -60.3030169 0.0630537937 -54.3509506
 0.865115067 -60.3030169 0.132218127 -102.128526 0.174412599 33.2175563
 0.0630537937 -54.3509506 0.174412599 33.2175563 0.136057161 -53.3019018 
2.8e+09 0.113612926 -91.607916 0.8649989 -60.9530482 0.0630913732 -54.9545629
 0.8649989 -60.9530482 0.132715986 -102.954765 0.174377932 32.606293
 0.0630913732 -54.9545629 0.174377932 32.606293 0.136350045 -53.8316926 
2.83e+09 0.113840635 -92.3638998 0.86488259 -61.6030032 0.0631279387 -55.5585288
 0.86488259 -61.6030032 0.133209179 -103.776426 0.174343441 31.9951401
 0.0631279387 -55.5585288 0.174343441 31.9951401 0.136644847 -54.360241 
2.86e+09 0.114064302 -93.1151657 0.864766164 -62.2528821 0.0631634868 -56.1628386
 0.864766164 -62.2528821 0.133697577 -104.593564 0.17430913 31.3840968
 0.0631634868 -56.1628386 0.17430913 31.3840968 0.136941534 -54.8875463 
2.89e+09 0.11428384 -93.8617317 0.864649649 -62.9026854 0.0631980143 -56.7674824
 0.864649649 -62.9026854 0.134181054 -105.406235 0.174275008 30.7731618
 0.0631980143 -56.7674824 0.174275008 30.7731618 0.137240075 -55.413608 
2.92e+09 0.114499164 -94.6036155 0.86453307 -63.5524134 0.063231518 -57.3724505
 0.86453307 -63.5524134 0.134659487 -106.214493 0.174241079 30.1623343
 0.063231518 -57.3724505 0.174241079 30.1623343 0.137540437 -55.9384257 
2.95e+09 0.114710193 -95.3408346 0.864416455 -64.2020666 0.0632639948 -57.9777332
 0.864416455 -64.2020666 0.135132758 -107.018392 0.174207351 29.551613
 0.0632639948 -57.9777332 0.174207351 29.551613 0.137842588 -56.4619995 
2.98e+09 0.114916848 -96.0734059 0.864299829 -64.8516455 0.063295442 -58.5833209
 0.864299829 -64.8516455 0.135600749 -107.817983 0.174173828 28.9409967
 0.063295442 -58.5833209 0.174173828 28.9409967 0.138146496 -56.9843294 
3.01e+09 0.115119051 -96.8013461 0.864183218 -65.5011505 0.0633258566 -59.1892038
 0.864183218 -65.5011505 0.136063346 -108.61332 0.174140518 28.3304844
 0.0633258566 -59.1892038 0.174140518 28.3304844 0.138452128 -57.5054157 
3.04e+09 0.115316729 -97.5246713 0.864066649 -66.1505822 0.0633552361 -59.7953725
 0.864066649 -66.1505822 0.13652044 -109.404452 0.174107426 27.7200748
 0.0633552361 -59.7953725 0.174107426 27.7200748 0.138759453 -58.0252589 
3.07e+09 0.11550981 -98.2433972 0.863950147 -66.799941 0.0633835778 -60.4018173
 0.863950147 -66.799941 0.136971922 -110.19143 0.174074557 27.1097667
 0.0633835778 -60.4018173 0.174074557 27.1097667 0.139068438 -58.5438598 
3.1e+09 0.115698225 -98.9575391 0.863833738 -67.4492277 0.0634108796 -61.0085288
 0.863833738 -67.4492277 0.137417687 -110.974302 0.174041919 26.4995588
 0.0634108796 -61.0085288 0.174041919 26.4995588 0.13937905 -59.0612193 
3.13e+09 0.115881909 -99.6671118 0.863717445 -68.0984427 0.0634371389 -61.6154974
 0.863717445 -68.0984427 0.137857634 -111.753117 0.174009516 25.8894498
 0.0634371389 -61.6154974 0.174009516 25.8894498 0.139691259 -59.5773383 
3.16e+09 0.116060797 -100.37213 0.863601295 -68.7475867 0.0634623537 -62.2227136
 0.863601295 -68.7475867 0.138291663 -112.527922 0.173977354 25.2794383
 0.0634623537 -62.2227136 0.173977354 25.2794383 0.14000503 -60.0922182 
3.19e+09 0.116234829 -101.072606 0.863485312 -69.3966604 0.0634865218 -62.8301681
 0.863485312 -69.3966604 0.138719677 -113.298763 0.173945438 24.669523
 0.0634865218 -62.8301681 0.173945438 24.669523 0.140320333 -60.6058602 
3.22e+09 0.116403946 -101.768555 0.86336952 -70.0456644 0.0635096414 -63.4378515
 0.86336952 -70.0456644 0.139141583 -114.065685 0.173913776 24.0597026
 0.0635096414 -63.4378515 0.173913776 24.0597026 0.140637135 -61.1182661 
3.25e+09 0.116568092 -102.459989 0.863253944 -70.6945994 0.0635317107 -64.0457544
 0.863253944 -70.6945994 0.139557289 -114.828732 0.17388237 23.4499755
 0.0635317107 -64.0457544 0.17388237 23.4499755 0.140955405 -61.6294376 
3.28e+09 0.116727215 -103.14692 0.863138607 -71.3434663 0.0635527278 -64.6538675
 0.863138607 -71.3434663 0.139966708 -115.58795 0.173851228 22.8403404
 0.0635527278 -64.6538675 0.173851228 22.8403404 0.141275109 -62.1393764 
3.31e+09 0.116881263 -103.82936 0.863023533 -71.9922657 0.0635726913 -65.2621815
 0.863023533 -71.9922657 0.140369753 -116.343379 0.173820354 22.2307957
 0.0635726913 -65.2621815 0.173820354 22.2307957 0.141596216 -62.6480848 
3.34e+09 0.117030189 -104.50732 0.862908745 -72.6409984 0.0635915996 -65.8706872
 0.862908745 -72.6409984 0.140766342 -117.095062 0.173789754 21.62134
 0.0635915996 -65.8706872 0.173789754 21.62134 0.141918694 -63.1555649 
3.37e+09 0.117173949 -105.18081 0.862794267 -73.2896653 0.0636094514 -66.4793752
 0.862794267 -73.2896653 0.141156393 -117.843041 0.173759432 21.0119718
 0.0636094514 -66.4793752 0.173759432 21.0119718 0.142242511 -63.661819 
3.4e+09 0.117312498 -105.84984 0.862680121 -73.9382671 0.0636262454 -67.0882365
 0.862680121 -73.9382671 0.14153983 -118.587354 0.173729394 20.4026894
 0.0636262454 -67.0882365 0.173729394 20.4026894 0.142567636 -64.1668496 
3.43e+09 0.117445798 -106.514419 0.862566329 -74.5868047 0.0636419804 -67.6972619
 0.862566329 -74.5868047 0.141916577 -119.328041 0.173699645 19.7934913
 0.0636419804 -67.6972619 0.173699645 19.7934913 0.142894036 -64.6706595 
3.46e+09 0.117573812 -107.174556 0.862452914 -75.2352791 0.0636566554 -68.3064421
 0.862452914 -75.2352791 0.142286561 -120.065142 0.173670189 19.1843759
 0.0636566554 -68.3064421 0.173670189 19.1843759 0.143221679 -65.1732512 
3.49e+09 0.117696504 -107.83026 0.862339898 -75.8836911 0.0636702695 -68.9157681
 0.862339898 -75.8836911 0.142649711 -120.798692 0.173641031 18.5753415
 0.0636702695 -68.9157681 0.173641031 18.5753415 0.143550535 -65.6746278 
3.52e+09 0.117813843 -108.481537 0.862227301 -76.5320416 0.0636828218 -69.5252308
 0.862227301 -76.5320416 0.143005961 -121.528729 0.173612177 17.9663865
 0.0636828218 -69.5252308 0.173612177 17.9663865 0.143880571 -66.1747923 
3.55e+09 0.117925799 -109.128395 0.862115146 -77.1803316 0.0636943117 -70.1348212
 0.862115146 -77.1803316 0.143355244 -122.255289 0.17358363 17.3575093
 0.0636943117 -70.1348212 0.17358363 17.3575093 0.144211755 -66.6737477 
3.58e+09 0.118032346 -109.770839 0.862003452 -77.828562 0.0637047384 -70.7445302
 0.862003452 -77.828562 0.143697499 -122.978407 0.173555395 16.7487081
 0.0637047384 -70.7445302 0.173555395 16.7487081 0.144544057 -67.1714975 
3.61e+09 0.118133461 -110.408875 0.861892241 -78.4767339 0.0637141015 -71.3543488
 0.861892241 -78.4767339 0.144032663 -123.698116 0.173527477 16.1399812
 0.0637141015 -71.3543488 0.173527477 16.1399812 0.144877445 -67.6680448 
3.64e+09 0.118229121 -111.042508 0.861781533 -79.1248482 0.0637224005 -71.964268
 0.861781533 -79.1248482 0.14436068 -124.414451 0.173499879 15.5313268
 0.0637224005 -71.964268 0.173499879 15.5313268 0.145211888 -68.1633934 
3.67e+09 0.118319308 -111.671742 0.861671347 -79.7729061 0.0637296353 -72.5742788
 0.861671347 -79.7729061 0.144681493 -125.127445 0.173472607 14.9227432
 0.0637296353 -72.5742788 0.173472607 14.9227432 0.145547354 -68.6575467 
3.7e+09 0.118404007 -112.29658 0.861561703 -80.4209084 0.0637358054 -73.1843723
 0.861561703 -80.4209084 0.144995049 -125.837128 0.173445664 14.3142286
 0.0637358054 -73.1843723 0.173445664 14.3142286 0.145883812 -69.1505085 
3.73e+09 0.118483204 -112.917027 0.86145262 -81.0688563 0.063740911 -73.7945396
 0.86145262 -81.0688563 0.145301297 -126.543533 0.173419055 13.7057812
 0.063740911 -73.7945396 0.173419055 13.7057812 0.146221231 -69.6422825 
3.76e+09 0.118556889 -113.533083 0.861344117 -81.716751 0.0637449519 -74.4047718
 0.861344117 -81.716751 0.145600189 -127.246688 0.173392782 13.0973991
 0.0637449519 -74.4047718 0.173392782 13.0973991 0.14655958 -70.1328728 
3.79e+09 0.118625054 -114.14475 0.861236211 -82.3645934 0.0637479282 -75.01506
 0.861236211 -82.3645934 0.145891677 -127.946625 0.173366851 12.4890806
 0.0637479282 -75.01506 0.173366851 12.4890806 0.146898829 -70.6222832 
3.82e+09 0.118687694 -114.752031 0.861128922 -83.0123847 0.0637498402 -75.6253954
 0.861128922 -83.0123847 0.146175718 -128.643372 0.173341265 11.8808237
 0.0637498402 -75.6253954 0.173341265 11.8808237 0.147238946 -71.110518 
3.85e+09 0.118744806 -115.354924 0.861022267 -83.660126 0.0637506881 -76.235769
 0.861022267 -83.660126 0.146452269 -129.336957 0.173316027 11.2726266
 0.0637506881 -76.235769 0.173316027 11.2726266 0.1475799 -71.5975812 
3.88e+09 0.118796391 -115.953429 0.860916263 -84.3078186 0.0637504724 -76.8461721
 0.860916263 -84.3078186 0.146721291 -130.027407 0.173291141 10.6644874
 0.0637504724 -76.8461721 0.173291141 10.6644874 0.147921662 -72.0834772 
3.91e+09 0.118842451 -116.547546 0.860810927 -84.9554635 0.0637491936 -77.4565958
 0.860810927 -84.9554635 0.146982747 -130.714749 0.173266611 10.0564041
 0.0637491936 -77.4565958 0.173266611 10.0564041 0.1482642 -72.5682103 
3.94e+09 0.118882993 -117.137272 0.860706275 -85.6030619 0.0637468522 -78.0670314
 0.860706275 -85.6030619 0.1472366 -131.399009 0.17324244 9.44837489
 0.0637468522 -78.0670314 0.17324244 9.44837489 0.148607484 -73.0517849 
3.97e+09 0.118918025 -117.722607 0.860602324 -86.2506151 0.0637434489 -78.67747
 0.860602324 -86.2506151 0.147482818 -132.080212 0.173218631 8.84039776
 0.0637434489 -78.67747 0.173218631 8.84039776 0.148951485 -73.5342056 
4e+09 0.118947557 -118.303545 0.860499089 -86.8981242 0.0637389845 -79.287903
 0.860499089 -86.8981242 0.14772137 -132.758383 0.173195188 8.23247077
 0.0637389845 -79.287903 0.173195188 8.23247077 0.149296171 -74.0154768 
4.03e+09 0.118971605 -118.880085 0.860396585 -87.5455906 0.0637334599 -79.8983215
 0.860396585 -87.5455906 0.147952226 -133.433545 0.173172113 7.62459195
 0.0637334599 -79.8983215 0.173172113 7.62459195 0.149641512 -74.4956033 
4.06e+09 0.118990184 -119.452221 0.860294828 -88.1930153 0.063726876 -80.5087168
 0.860294828 -88.1930153 0.14817536 -134.105722 0.173149409 7.01675932
 0.063726876 -80.5087168 0.173149409 7.01675932 0.149987479 -74.9745898 
4.09e+09 0.119003314 -120.01995 0.860193832 -88.8403997 0.063719234 -81.1190801
 0.860193832 -88.8403997 0.148390747 -134.774937 0.17312708 6.40897087
 0.063719234 -81.1190801 0.17312708 6.40897087 0.150334042 -75.4524411 
4.12e+09 0.119011017 -120.583264 0.860093611 -89.487745 0.0637105351 -81.7294028
 0.860093611 -89.487745 0.148598364 -135.441211 0.173105128 5.80122461
 0.0637105351 -81.7294028 0.173105128 5.80122461 0.150681171 -75.9291619 
4.15e+09 0.119013318 -121.142159 0.85999418 -90.1350526 0.0637007803 -82.3396761
 0.85999418 -90.1350526 0.148798192 -136.104565 0.173083555 5.19351852
 0.0637007803 -82.3396761 0.173083555 5.19351852 0.151028836 -76.4047572 
4.18e+09 0.119010244 -121.696628 0.85989555 -90.7823236 0.0636899713 -82.9498913
 0.85989555 -90.7823236 0.14899021 -136.76502 0.173062365 4.58585057
 0.0636899713 -82.9498913 0.173062365 4.58585057 0.151377008 -76.8792319 
4.21e+09 0.119001826 -122.246663 0.859797736 -91.4295594 0.0636781093 -83.5600396
 0.859797736 -91.4295594 0.149174403 -137.422597 0.17304156 3.97821872
 0.0636781093 -83.5600396 0.17304156 3.97821872 0.151725657 -77.352591 
4.24e+09 0.118988097 -122.792256 0.859700749 -92.0767612 0.0636651959 -84.1701125
 0.859700749 -92.0767612 0.149350756 -138.077314 0.173021141 3.37062093
 0.0636651959 -84.1701125 0.173021141 3.37062093 0.152074755 -77.8248397 
4.27e+09 0.118969093 -123.333399 0.859604602 -92.7239305 0.0636512327 -84.7801012
 0.859604602 -92.7239305 0.149519256 -138.72919 0.173001112 2.76305514
 0.0636512327 -84.7801012 0.173001112 2.76305514 0.152424272 -78.2959829 
4.3e+09 0.118944851 -123.870084 0.859509306 -93.3710684 0.0636362216 -85.3899969
 0.859509306 -93.3710684 0.149679894 -139.378243 0.172981474 2.1555193
 0.0636362216 -85.3899969 0.172981474 2.1555193 0.152774178 -78.7660258 
4.33e+09 0.118915415 -124.402299 0.859414873 -94.0181764 0.0636201643 -85.9997911
 0.859414873 -94.0181764 0.14983266 -140.024492 0.17296223 1.54801133
 0.0636201643 -85.9997911 0.17296223 1.54801133 0.153124446 -79.2349736 
4.36e+09 0.118880828 -124.930035 0.859321314 -94.6652557 0.0636030626 -86.609475
 0.859321314 -94.6652557 0.149977548 -140.667952 0.172943381 0.940529172
 0.0636030626 -86.609475 0.172943381 0.940529172 0.153475045 -79.7028315 
4.39e+09 0.118841136 -125.453282 0.859228639 -95.3123078 0.0635849187 -87.2190399
 0.859228639 -95.3123078 0.150114552 -141.308641 0.172924929 0.333070735
 0.0635849187 -87.2190399 0.172924929 0.333070735 0.153825949 -80.1696049 
4.42e+09 0.118796391 -125.972027 0.859136859 -95.9593338 0.0635657347 -87.8284772
 0.859136859 -95.9593338 0.150243671 -141.946573 0.172906876 -0.274366061
 0.0635657347 -87.8284772 0.172906876 -0.274366061 0.154177127 -80.6352989 
4.45e+09 0.118746644 -126.48626 0.859045982 -96.6063353 0.0635455126 -88.4377782
 0.859045982 -96.6063353 0.150364903 -142.581766 0.172889224 -0.881783302
 0.0635455126 -88.4377782 0.172889224 -0.881783302 0.154528552 -81.0999189 
4.48e+09 0.11869195 -126.995967 0.858956018 -97.2533135 0.0635242549 -89.0469341
 0.858956018 -97.2533135 0.15047825 -143.214232 0.172871974 -1.48918308
 0.0635242549 -89.0469341 0.172871974 -1.48918308 0.154880195 -81.5634703 
4.51e+09 0.118632369 -127.501137 0.858866976 -97.9002698 0.0635019638 -89.6559362
 0.858866976 -97.9002698 0.150583714 -143.843987 0.172855127 -2.09656749
 0.0635019638 -89.6559362 0.172855127 -2.09656749 0.155232029 -82.0259584 
4.54e+09 0.11856796 -128.001756 0.858778864 -98.5472056 0.0634786419 -90.264776
 0.858778864 -98.5472056 0.150681299 -144.471044 0.172838685 -2.70393862
 0.0634786419 -90.264776 0.172838685 -2.70393862 0.155584025 -82.4873887 
4.57e+09 0.118498789 -128.49781 0.858691691 -99.1941222 0.0634542916 -90.8734446
 0.858691691 -99.1941222 0.150771014 -145.095416 0.172822649 -3.31129857
 0.0634542916 -90.8734446 0.172822649 -3.31129857 0.155936155 -82.9477666 
4.6e+09 0.118424921 -128.989285 0.858605464 -99.841021 0.0634289158 -91.4819333
 0.858605464 -99.841021 0.150852865 -145.717116 0.17280702 -3.91864944
 0.0634289158 -91.4819333 0.17280702 -3.91864944 0.156288392 -83.4070976 
4.63e+09 0.118346426 -129.476167 0.858520189 -100.487903 0.063402517 -92.0902335
 0.858520189 -100.487903 0.150926863 -146.336156 0.1727918 -4.52599333
 0.063402517 -92.0902335 0.1727918 -4.52599333 0.156640707 -83.8653871 
4.66e+09 0.118263376 -129.95844 0.858435875 -101.134771 0.0633750981 -92.6983364
 0.858435875 -101.134771 0.150993021 -146.952547 0.172776988 -5.13333233
 0.0633750981 -92.6983364 0.172776988 -5.13333233 0.156993075 -84.3226407 
4.69e+09 0.118175846 -130.43609 0.858352527 -101.781624 0.0633466621 -93.3062333
 0.858352527 -101.781624 0.151051352 -147.566301 0.172762586 -5.74066853
 0.0633466621 -93.3062333 0.172762586 -5.74066853 0.157345466 -84.7788638 
4.72e+09 0.118083915 -130.9091 0.858270152 -102.428465 0.063317212 -93.9139154
 0.858270152 -102.428465 0.151101872 -148.177428 0.172748594 -6.34800404
 0.063317212 -93.9139154 0.172748594 -6.34800404 0.157697854 -85.2340619 
4.75e+09 0.117987664 -131.377456 0.858188754 -103.075296 0.0632867509 -94.5213739
 0.858188754 -103.075296 0.151144599 -148.785939 0.172735013 -6.95534093
 0.0632867509 -94.5213739 0.172735013 -6.95534093 0.158050213 -85.6882407 
4.78e+09 0.117887175 -131.84114 0.858108339 -103.722116 0.0632552819 -95.1286001
 0.858108339 -103.722116 0.151179551 -149.391843 0.172721844 -7.5626813
 0.0632552819 -95.1286001 0.172721844 -7.5626813 0.158402514 -86.1414057 
4.81e+09 0.117782535 -132.300136 0.858028912 -104.368929 0.0632228085 -95.7355853
 0.858028912 -104.368929 0.15120675 -149.995149 0.172709087 -8.17002724
 0.0632228085 -95.7355853 0.172709087 -8.17002724 0.158754732 -86.5935624 
4.84e+09 0.117673834 -132.754427 0.857950478 -105.015734 0.0631893339 -96.3423206
 0.857950478 -105.015734 0.151226217 -150.595866 0.172696742 -8.77738081
 0.0631893339 -96.3423206 0.172696742 -8.77738081 0.159106839 -87.0447163 
4.87e+09 0.117561164 -133.203996 0.85787304 -105.662535 0.0631548617 -96.9487972
 0.85787304 -105.662535 0.151237979 -151.194002 0.172684809 -9.3847441
 0.0631548617 -96.9487972 0.172684809 -9.3847441 0.15945881 -87.4948731 
4.9e+09 0.11744462 -133.648827 0.857796601 -106.30933 0.0631193954 -97.5550063