! Simulation of a 4-port directional coupler
! P1 and P2 are the thru ports, P3 is coupled to P2, P4 is coupled to P1
# hz S ma R 50
1e+09 0.135400768 -32.1805244 0.913688333 -21.9152141 0.0504655466 -22.3806299 0.314044325 72.8080142
0.913688333 -21.9152141 0.13897577 -38.291354 0.314111974 69.3021766 0.0490185719 -24.6270525
0.0504655466 -22.3806299 0.314111974 69.3021766 0.2126719 -18.1793013 0.000660250688 -55.550224
0.314044325 72.8080142 0.0490185719 -24.6270525 0.000660250688 -55.550224 0.212273421 -17.0725343
1.03e+09 0.135547539 -33.1166052 0.913613132 -22.5716382 0.050631199 -22.9824 0.314002317 72.2913839
0.913613132 -22.5716382 0.139327657 -39.3893002 0.31406723 68.6801531 0.049145445 -25.2799251
0.050631199 -22.9824 0.31406723 68.6801531 0.212805788 -18.7217754 0.000676953584 -55.7260074
0.314002317 72.2913839 0.049145445 -25.2799251 0.000676953584 -55.7260074 0.212383586 -17.5819573
1.06e+09 0.135697429 -34.0501991 0.913535765 -23.2280118 0.050795986 -23.5861474 0.313959961 71.7748413
0.913535765 -23.2280118 0.13968733 -40.4831579 0.314021848 68.058214 0.0492718789 -25.9340293
0.050795986 -23.5861474 0.314021848 68.058214 0.212943448 -19.2639886 0.000693763274 -55.9334115
0.313959961 71.7748413 0.0492718789 -25.9340293 0.000693763274 -55.9334115 0.212496887 -18.0911325
1.09e+09 0.135850339 -34.9812511 0.913456251 -23.8843333 0.0509598867 -24.191842 0.313917265 71.2583872
0.913456251 -23.8843333 0.140054586 -41.5728639 0.313975838 67.4363608 0.0493978639 -26.5893504
0.0509598867 -24.191842 0.313975838 67.4363608 0.213084865 -19.8059336 0.00071067295 -56.1704819
0.313917265 71.2583872 0.0493978639 -26.5893504 0.00071067295 -56.1704819 0.212613314 -18.6000528
1.12e+09 0.13600617 -35.9097078 0.913374614 -24.5406009 0.05112288 -24.7994534 0.313874238 70.7420223
0.913374614 -24.5406009 0.140429219 -42.6583584 0.313929209 66.8145949 0.0495233903 -27.2458735
0.05112288 -24.7994534 0.313929209 66.8145949 0.21323002 -20.3476031 0.000727676263 -56.4354113
0.313874238 70.7420223 0.0495233903 -27.2458735 0.000727676263 -56.4354113 0.212732854 -19.1087114
1.15e+09 0.136164819 -36.8355169 0.913290875 -25.1968131 0.0512849457 -25.4089519 0.313830891 70.2257472
0.913290875 -25.1968131 0.140811023 -43.7395854 0.313881971 66.1929178 0.0496484487 -27.9035842
0.0512849457 -25.4089519 0.313881971 66.1929178 0.213378898 -20.8889898 0.000744767273 -56.7265271
0.313830891 70.2257472 0.0496484487 -27.9035842 0.000744767273 -56.7265271 0.212855498 -19.6171012
1.18e+09 0.136326183 -37.7586277 0.913205056 -25.8529683 0.0514460634 -26.0203081 0.313787233 69.7095624
0.913205056 -25.8529683 0.141199788 -44.8164923 0.313834133 65.5713309 0.0497730297 -28.5624679
0.0514460634 -26.0203081 0.313834133 65.5713309 0.213531479 -21.4300867 0.00076194041 -57.0422809
0.313787233 69.7095624 0.0497730297 -28.5624679 0.00076194041 -57.0422809 0.212981232 -20.1252153
1.21e+09 0.136490157 -38.6789907 0.91311718 -26.5090647 0.0516062133 -26.6334927 0.313743275 69.1934686
0.91311718 -26.5090647 0.141595302 -45.8890302 0.313785706 64.9498357 0.0498971241 -29.2225102
0.0516062133 -26.6334927 0.313785706 64.9498357 0.213687745 -21.9708866 0.000779190441 -57.3812376
0.313743275 69.1934686 0.0498971241 -29.2225102 0.000779190441 -57.3812376 0.213110045 -20.6330471
1.24e+09 0.136656635 -39.5965578 0.913027271 -27.165101 0.0517653758 -27.2484766 0.313699025 68.6774663
0.913027271 -27.165101 0.141997352 -46.9571536 0.313736698 64.3284335 0.0500207229 -29.883697
0.0517653758 -27.2484766 0.313736698 64.3284335 0.213847678 -22.5113825 0.000796512433 -57.7420665
0.313699025 68.6774663 0.0500207229 -29.883697 0.000796512433 -57.7420665 0.213241924 -21.1405896
1.27e+09 0.136825509 -40.5112822 0.912935353 -27.8210755 0.0519235319 -27.8652314 0.313654494 68.1615559
0.912935353 -27.8210755 0.142405725 -48.0208201 0.313687121 63.7071257 0.0501438171 -30.546014
0.0519235319 -27.8652314 0.313687121 63.7071257 0.214011259 -23.0515674 0.000813901729 -58.1235322
0.313654494 68.1615559 0.0501438171 -30.546014 0.000813901729 -58.1235322 0.213376857 -21.6478362
1.3e+09 0.136996672 -41.4231186 0.912841451 -28.4769867 0.0520806626 -28.4837287 0.313609692 67.645738
0.912841451 -28.4769867 0.142820204 -49.079991 0.313636985 63.0859136 0.050266398 -31.209447
0.0520806626 -28.4837287 0.313636985 63.0859136 0.214178468 -23.5914343 0.000831353917 -58.5244876
0.313609692 67.645738 0.050266398 -31.209447 0.000831353917 -58.5244876 0.213514831 -22.1547801
1.33e+09 0.137170014 -42.3320229 0.912745588 -29.1328332 0.0522367492 -29.1039404 0.313564629 67.1300131
0.912745588 -29.1328332 0.143240574 -50.1346306 0.3135863 62.4647985 0.0503884568 -31.8739823
0.0522367492 -29.1039404 0.3135863 62.4647985 0.214349286 -24.1309763 0.000848864813 -58.9438656
0.313564629 67.1300131 0.0503884568 -31.8739823 0.000848864813 -58.9438656 0.213655833 -22.6614148
1.36e+09 0.137345425 -43.2379523 0.912647792 -29.7886134 0.0523917736 -29.7258387 0.313519316 66.6143815
0.912647792 -29.7886134 0.143666616 -51.1847066 0.313535077 61.8437817 0.0505099851 -32.5396059
0.0523917736 -29.7258387 0.313535077 61.8437817 0.214523691 -24.6701868 0.000866430436 -59.3806735
0.313519316 66.6143815 0.0505099851 -32.5396059 0.000866430436 -59.3806735 0.213799848 -23.1677338
1.39e+09 0.137522794 -44.1408656 0.912548087 -30.4443259 0.0525457178 -30.3493962 0.313473761 66.0988436
0.912548087 -30.4443259 0.144098113 -52.2301897 0.313483327 61.2228643 0.0506309745 -33.2063041
0.0525457178 -30.3493962 0.313483327 61.2228643 0.214701663 -25.209059 0.000884046992 -59.8339867
0.313473761 66.0988436 0.0506309745 -33.2063041 0.000884046992 -59.8339867 0.213946865 -23.6737304
1.42e+09 0.137702009 -45.0407225 0.912446499 -31.0999693 0.0526985641 -30.9745857 0.313427977 65.5833999
0.912446499 -31.0999693 0.144534846 -53.2710536 0.31343106 60.6020477 0.0507514167 -33.8740632
0.0526985641 -30.9745857 0.31343106 60.6020477 0.214883182 -25.7475862 0.000901710855 -60.3029431
0.313427977 65.5833999 0.0507514167 -33.8740632 0.000901710855 -60.3029431 0.214096868 -24.1793984
1.45e+09 0.137882958 -45.9374843 0.912343057 -31.7555422 0.0528502951 -31.6013804 0.313381973 65.0680505
0.912343057 -31.7555422 0.144976596 -54.3072749 0.313378287 59.9813331 0.0508713036 -34.5428698
0.0528502951 -31.6013804 0.313378287 59.9813331 0.215068225 -26.2857618 0.000919418554 -60.7867381
0.313381973 65.0680505 0.0508713036 -34.5428698 0.000919418554 -60.7867381 0.214249843 -24.6847314
1.48e+09 0.138065527 -46.8311135 0.912237785 -32.4110432 0.0530008939 -32.2297536 0.313335759 64.5527959
0.912237785 -32.4110432 0.145423145 -55.3388333 0.31332502 59.3607214 0.0509906272 -35.2127103
0.0530008939 -32.2297536 0.31332502 59.3607214 0.21525677 -26.8235794 0.000937166756 -61.2846206
0.313335759 64.5527959 0.0509906272 -35.2127103 0.000937166756 -61.2846206 0.214405776 -25.189723
1.51e+09 0.138249604 -47.7215739 0.912130713 -33.066471 0.0531503437 -32.859679 0.313289347 64.0376362
0.912130713 -33.066471 0.145874272 -56.3657111 0.313271269 58.7402139 0.0511093795 -35.8835716
0.0531503437 -32.859679 0.313271269 58.7402139 0.215448796 -27.3610324 0.000954952262 -61.7958882
0.313289347 64.0376362 0.0511093795 -35.8835716 0.000954952262 -61.7958882 0.214564652 -25.694367
1.54e+09 0.138435074 -48.6088305 0.912021867 -33.7218244 0.0532986279 -33.4911307 0.313242745 63.5225718
0.912021867 -33.7218244 0.14632976 -57.3878934 0.313217047 58.1198117 0.0512275529 -36.5554405
0.0532986279 -33.4911307 0.313217047 58.1198117 0.21564428 -27.8981145 0.000972771985 -62.3198836
0.313242745 63.5225718 0.0512275529 -36.5554405 0.000972771985 -62.3198836 0.214726455 -26.1986573
1.57e+09 0.138621822 -49.4928496 0.911911276 -34.3771019 0.0534457306 -34.1240829 0.313195966 63.0076028
0.911911276 -34.3771019 0.14678939 -58.4053678 0.313162364 57.4995157 0.0513451398 -37.2283038
0.0534457306 -34.1240829 0.313162364 57.4995157 0.215843198 -28.4348195 0.000990622949 -62.8559915
0.313195966 63.0076028 0.0513451398 -37.2283038 0.000990622949 -62.8559915 0.214891172 -26.7025877
1.6e+09 0.138809736 -50.3735987 0.911798969 -35.0323024 0.0535916357 -34.7585101 0.313149019 62.4927293
0.911798969 -35.0323024 0.147252944 -59.4181245 0.313107232 56.879327 0.0514621327 -37.9021486
0.0535916357 -34.7585101 0.313107232 56.879327 0.216045528 -28.971141 0.00100850228 -63.4036349
0.313149019 62.4927293 0.0514621327 -37.9021486 0.00100850228 -63.4036349 0.215058786 -27.2061522
1.63e+09 0.138998699 -51.2510465 0.911684974 -35.6874247 0.0537363278 -35.3943872 0.313101916 61.9779515
0.911684974 -35.6874247 0.147720204 -60.4261563 0.313051663 56.2592466 0.0515785241 -38.5769621
0.0537363278 -35.3943872 0.313051663 56.2592466 0.216251244 -29.5070729 0.00102640718 -63.9622727
0.313101916 61.9779515 0.0515785241 -38.5769621 0.00102640718 -63.9622727 0.215229281 -27.7093448
1.66e+09 0.139188598 -52.1251629 0.911569321 -36.3424675 0.0538797915 -36.0316893 0.313054665 61.4632695
0.911569321 -36.3424675 0.148190953 -61.429458 0.312995668 55.6392755 0.0516943069 -39.2527315
0.0538797915 -36.0316893 0.312995668 55.6392755 0.216460324 -30.0426093 0.00104433495 -64.5313966
0.313054665 61.4632695 0.0516943069 -39.2527315 0.00104433495 -64.5313966 0.215402642 -28.2121597
1.69e+09 0.139379318 -52.9959189 0.91145204 -36.9974297 0.0540220118 -36.6703919 0.31300728 60.9486833
0.91145204 -36.9974297 0.148664976 -62.4280271 0.31293926 55.0194144 0.051809474 -39.9294443
0.0540220118 -36.6703919 0.31293926 55.0194144 0.216672743 -30.577744 0.00106228297 -65.110529
0.31300728 60.9486833 0.051809474 -39.9294443 0.00106228297 -65.110529 0.215578852 -28.7145911
1.72e+09 0.139570744 -53.8632868 0.911333159 -37.6523102 0.0541629741 -37.3104705 0.312959769 60.434193
0.911333159 -37.6523102 0.149142056 -63.4218628 0.31288245 54.3996644 0.0519240183 -40.6070878
0.0541629741 -37.3104705 0.31288245 54.3996644 0.216888476 -31.1124712 0.00108024867 -65.6992207
0.312959769 60.434193 0.0519240183 -40.6070878 0.00108024867 -65.6992207 0.215757895 -29.2166331
1.75e+09 0.139762762 -54.7272397 0.911212711 -38.3071079 0.0543026637 -37.9519012 0.312912143 59.9197986
0.911212711 -38.3071079 0.149621982 -64.4109669 0.312825251 53.7800263 0.052037933 -41.2856499
0.0543026637 -37.9519012 0.312825251 53.7800263 0.217107497 -31.6467851 0.00109822957 -66.2970486
0.312912143 59.9197986 0.052037933 -41.2856499 0.00109822957 -66.2970486 0.215939754 -29.7182802
1.78e+09 0.139955258 -55.5877521 0.911090724 -38.9618217 0.0544410667 -38.5946602 0.312864414 59.4055001
0.911090724 -38.9618217 0.150104538 -65.3953429 0.312767673 53.1605008 0.0521512114 -41.9651181
0.0544410667 -38.5946602 0.312767673 53.1605008 0.217329782 -32.1806798 0.00111622323 -66.9036144
0.312864414 59.4055001 0.0521512114 -41.9651181 0.00111622323 -66.9036144 0.216124412 -30.2195267
1.81e+09 0.140148118 -56.4447995 0.910967229 -39.6164506 0.0545781691 -39.238724 0.312816591 58.8912972
0.910967229 -39.6164506 0.150589515 -66.3749961 0.312709731 52.5410887 0.0522638467 -42.6454804
0.0545781691 -39.238724 0.312709731 52.5410887 0.217555303 -32.7141498 0.00113422728 -67.5185423
0.312816591 58.8912972 0.0522638467 -42.6454804 0.00113422728 -67.5185423 0.216311853 -30.720367
1.84e+09 0.140341228 -57.2983583 0.910842259 -40.2709936 0.0547139572 -39.8840693 0.312768686 58.37719
0.910842259 -40.2709936 0.151076701 -67.3499341 0.312651435 51.9217907 0.0523758326 -43.3267247
0.0547139572 -39.8840693 0.312651435 51.9217907 0.217784036 -33.2471895 0.00115223939 -68.1414777
0.312768686 58.37719 0.0523758326 -43.3267247 0.00115223939 -68.1414777 0.216502057 -31.2207959
1.87e+09 0.140534475 -58.1484061 0.910715843 -40.9254497 0.0548484177 -40.5306733 0.312720708 57.8631783
0.910715843 -40.9254497 0.151565889 -68.3201658 0.312592798 51.3026076 0.0524871627 -44.0088391
0.0548484177 -40.5306733 0.312592798 51.3026076 0.218015954 -33.7797932 0.00117025729 -68.7720857
0.312720708 57.8631783 0.0524871627 -44.0088391 0.00117025729 -68.7720857 0.216695009 -31.7208077
1.9e+09 0.140727748 -58.9949213 0.910588014 -41.5798181 0.0549815375 -41.1785132 0.312672669 57.349262
0.910588014 -41.5798181 0.152056871 -69.2857019 0.312533832 50.68354 0.0525978305 -44.6918117
0.0549815375 -41.1785132 0.312533832 50.68354 0.218251029 -34.3119557 0.00118827875 -69.4100497
0.312672669 57.349262 0.0525978305 -44.6918117 0.00118827875 -69.4100497 0.21689069 -32.2203974
1.93e+09 0.140920934 -59.8378834 0.910458803 -42.2340977 0.0551133039 -41.8275665 0.31262458 56.8354407
0.910458803 -42.2340977 0.152549442 -70.2465549 0.312474551 50.0645886 0.0527078301 -45.375631
0.0551133039 -41.8275665 0.312474551 50.0645886 0.218489234 -34.8436716 0.00120630158 -70.0550704
0.31262458 56.8354407 0.0527078301 -45.375631 0.00120630158 -70.0550704 0.217089082 -32.7195596
1.96e+09 0.141113922 -60.6772729 0.910328242 -42.8882878 0.0552437041 -42.4778112 0.31257645 56.3217143
0.910328242 -42.8882878 0.153043398 -71.2027386 0.312414965 49.4457538 0.0528171552 -46.0602853
0.0552437041 -42.4778112 0.312414965 49.4457538 0.218730542 -35.3749356 0.00122432362 -70.7068642
0.31257645 56.3217143 0.0528171552 -46.0602853 0.00122432362 -70.7068642 0.217290167 -33.2182892
1.99e+09 0.141306601 -61.513071 0.910196364 -43.5423875 0.0553727259 -43.1292252 0.31252829 55.8080824
0.910196364 -43.5423875 0.153538537 -72.1542682 0.312355089 48.8270363 0.0529258001 -46.7457633
0.0553727259 -43.1292252 0.312355089 48.8270363 0.218974926 -35.9057425 0.00124234277 -71.3651625
0.31252829 55.8080824 0.0529258001 -46.7457633 0.00124234277 -71.3651625 0.217493927 -33.7165812
2.02e+09 0.141498862 -62.3452599 0.9100632 -44.196396 0.0555003573 -43.781787 0.312480112 55.2945448
0.9100632 -44.196396 0.154034659 -73.1011603 0.312294934 48.2084365 0.0530337589 -47.4320534
0.0555003573 -43.781787 0.312294934 48.2084365 0.219222357 -36.4360873 0.00126035693 -72.029711
0.312480112 55.2945448 0.0530337589 -47.4320534 0.00126035693 -72.029711 0.217700342 -34.2144306
2.05e+09 0.141690597 -63.1738227 0.909928784 -44.8503126 0.0556265865 -44.4354751 0.312431924 54.7811011
0.909928784 -44.8503126 0.154531567 -74.0434329 0.312234513 47.589955 0.0531410259 -48.1191446
0.0556265865 -44.4354751 0.312234513 47.589955 0.219472806 -36.965965 0.00127836407 -72.7002679
0.312431924 54.7811011 0.0531410259 -48.1191446 0.00127836407 -72.7002679 0.217909394 -34.7118324
2.08e+09 0.141881696 -63.9987434 0.909793147 -45.5041365 0.0557514018 -45.0902684 0.312383738 54.2677509
0.909793147 -45.5041365 0.155029064 -74.9811051 0.312173839 46.9715921 0.0532475954 -48.8070258
0.0557514018 -45.0902684 0.312173839 46.9715921 0.219726245 -37.4953707 0.00129636215 -73.376604
0.312383738 54.2677509 0.0532475954 -48.8070258 0.00129636215 -73.376604 0.218121064 -35.2087819
2.11e+09 0.142072053 -64.8200065 0.909656323 -46.1578671 0.0558747921 -45.7461459 0.312335565 53.7544938
0.909656323 -46.1578671 0.155526956 -75.9141971 0.312112924 46.3533482 0.053353462 -49.4956859
0.0558747921 -45.7461459 0.312112924 46.3533482 0.219982645 -38.0242994 0.0013143492 -74.0585014
0.312335565 53.7544938 0.053353462 -49.4956859 0.0013143492 -74.0585014 0.218335333 -35.7052743
2.14e+09 0.142261563 -65.6375975 0.909518344 -46.8115037 0.0559967462 -46.403087 0.312287414 53.2413294
0.909518344 -46.8115037 0.156025051 -76.8427303 0.31205178 45.7352238 0.0534586203 -50.185114
0.0559967462 -46.403087 0.31205178 45.7352238 0.220241977 -38.5527466 0.00133232323 -74.7457531
0.312287414 53.2413294 0.0534586203 -50.185114 0.00133232323 -74.7457531 0.21855218 -36.201305
2.17e+09 0.14245012 -66.4515028 0.909379245 -47.4650457 0.0561172533 -47.0610712 0.312239295 52.7282571
0.909379245 -47.4650457 0.15652316 -77.766727 0.311990422 45.117219 0.0535630651 -50.8752995
0.0561172533 -47.0610712 0.311990422 45.117219 0.220504211 -39.0807075 0.00135028231 -75.4381619
0.312239295 52.7282571 0.0535630651 -50.8752995 0.00135028231 -75.4381619 0.218771588 -36.6968694
2.2e+09 0.142637621 -67.2617091 0.909239057 -48.1184924 0.0562363029 -47.7200785 0.31219122 52.2152764
0.909239057 -48.1184924 0.157021096 -78.6862104 0.311928861 44.4993343 0.053666791 -51.5662316
0.0562363029 -47.7200785 0.311928861 44.4993343 0.220769318 -39.6081776 0.00136822453 -76.1355403
0.31219122 52.2152764 0.053666791 -51.5662316 0.00136822453 -76.1355403 0.218993535 -37.191963
2.23e+09 0.142823963 -68.0682042 0.909097814 -48.7718434 0.0563538846 -48.3800887 0.312143198 51.7023868
0.909097814 -48.7718434 0.157518672 -79.6012046 0.31186711 43.8815698 0.0537697932 -52.2578998
0.0563538846 -48.3800887 0.31186711 43.8815698 0.221037267 -40.1351523 0.00138614799 -76.8377096
0.312143198 51.7023868 0.0537697932 -52.2578998 0.00138614799 -76.8377096 0.219218001 -37.6865814
2.26e+09 0.143009045 -68.8709763 0.90895555 -49.4250982 0.0564699883 -49.0410822 0.312095239 51.1895876
0.90895555 -49.4250982 0.158015708 -80.5117346 0.311805182 43.2639256 0.0538720665 -52.9502938
0.0564699883 -49.0410822 0.311805182 43.2639256 0.221308028 -40.6616273 0.00140405081 -77.5444994
0.312095239 51.1895876 0.0538720665 -52.9502938 0.00140405081 -77.5444994 0.219444967 -38.1807202
2.29e+09 0.143192767 -69.6700143 0.908812299 -50.0782562 0.0565846041 -49.7030396 0.312047354 50.6768783
0.908812299 -50.0782562 0.158512021 -81.417826 0.311743089 42.6464021 0.0539736062 -53.6434031
0.0565846041 -49.7030396 0.311743089 42.6464021 0.22158157 -41.1875983 0.00142193113 -78.2557473
0.312047354 50.6768783 0.0539736062 -53.6434031 0.00142193113 -78.2557473 0.219674413 -38.6743753
2.32e+09 0.14337503 -70.4653079 0.908668092 -50.731317 0.0566977224 -50.3659414 0.311999552 50.1642582
0.908668092 -50.731317 0.159007435 -82.3195053 0.311680845 42.0289993 0.0540744074 -54.3372177
0.0566977224 -50.3659414 0.311680845 42.0289993 0.221857862 -41.7130611 0.00143978713 -78.9712983
0.311999552 50.1642582 0.0540744074 -54.3372177 0.00143978713 -78.9712983 0.219906316 -39.1675424
2.35e+09 0.143555738 -71.2568472 0.908522965 -51.3842803 0.0568093338 -51.0297688 0.311951843 49.6517266
0.908522965 -51.3842803 0.159501772 -83.2167994 0.311618462 41.4117172 0.0541744655 -55.0317274
0.0568093338 -51.0297688 0.311618462 41.4117172 0.222136875 -42.2380115 0.00145761698 -79.6910041
0.311951843 49.6517266 0.0541744655 -55.0317274 0.00145761698 -79.6910041 0.220140658 -39.6602176
2.38e+09 0.143734795 -72.0446228 0.908376951 -52.0371456 0.0569194291 -51.6945029 0.311904238 49.1392828
0.908376951 -52.0371456 0.159994861 -84.1097359 0.311555953 40.794556 0.0542737759 -55.7269222
0.0569194291 -51.6945029 0.311555953 40.794556 0.222418575 -42.7624454 0.00147541889 -80.4147235
0.311904238 49.1392828 0.0542737759 -55.7269222 0.00147541889 -80.4147235 0.220377417 -40.1523967
2.41e+09 0.143912105 -72.8286261 0.908230083 -52.6899126 0.0570279993 -52.360125 0.311856746 48.626926
0.908230083 -52.6899126 0.160486531 -84.9983429 0.31149333 40.1775156 0.0543723342 -56.4227923
0.0570279993 -52.360125 0.31149333 40.1775156 0.222702932 -43.286359 0.00149319107 -81.1423209
0.311856746 48.626926 0.0543723342 -56.4227923 0.00149319107 -81.1423209 0.220616571 -40.6440759
2.44e+09 0.144087578 -73.6088487 0.908082395 -53.342581 0.0571350356 -53.0266168 0.311809376 48.1146554
0.908082395 -53.342581 0.160976612 -85.8826491 0.311430607 39.5605959 0.0544701358 -57.119328
0.0571350356 -53.0266168 0.311430607 39.5605959 0.222989913 -43.8097483 0.00151093176 -81.873667
0.311809376 48.1146554 0.0544701358 -57.119328 0.00151093176 -81.873667 0.220858101 -41.1352515
2.47e+09 0.14426112 -74.3852829 0.90793392 -53.9951506 0.0572405296 -53.6939601 0.311762139 47.6024703
0.90793392 -53.9951506 0.161464941 -86.7626835 0.311367795 38.9437971 0.0545671766 -57.8165195
0.0572405296 -53.6939601 0.311367795 38.9437971 0.223279488 -44.3326095 0.0015286392 -82.608638
0.311762139 47.6024703 0.0545671766 -57.8165195 0.0015286392 -82.608638 0.221101983 -41.6259195
2.5e+09 0.144432644 -75.1579214 0.907784693 -54.6476211 0.057344473 -54.362137 0.311715043 47.0903697
0.907784693 -54.6476211 0.161951353 -87.6384755 0.311304907 38.3271188 0.0546634524 -58.5143574
0.057344473 -54.362137 0.311304907 38.3271188 0.223571623 -44.854939 0.00154631165 -83.347115
0.311715043 47.0903697 0.0546634524 -58.5143574 0.00154631165 -83.347115 0.221348198 -42.1160764
2.53e+09 0.144602061 -75.9267573 0.907634747 -55.2999924 0.0574468575 -55.0311297 0.311668099 46.5783528
0.907634747 -55.2999924 0.162435688 -88.5100549 0.311241957 37.7105609 0.054758959 -59.2128322
0.0574468575 -55.0311297 0.311241957 37.7105609 0.223866286 -45.3767331 0.0015639474 -84.0889845
0.311668099 46.5783528 0.054758959 -59.2128322 0.0015639474 -84.0889845 0.221596723 -42.6057187
2.56e+09 0.144769284 -76.6917842 0.907484116 -55.9522642 0.0575476754 -55.7009206 0.311621314 46.0664186
0.907484116 -55.9522642 0.162917788 -89.3774518 0.311178956 37.0941234 0.0548536923 -59.9119347
0.0575476754 -55.7009206 0.311178956 37.0941234 0.224163444 -45.8979883 0.00158154474 -84.8341373
0.311621314 46.0664186 0.0548536923 -59.9119347 0.00158154474 -84.8341373 0.221847536 -43.0948427
2.59e+09 0.14493423 -77.452996 0.907332832 -56.6044365 0.0576469189 -56.3714925 0.3115747 45.5545663
0.907332832 -56.6044365 0.163397497 -90.2406965 0.311115918 36.4778059 0.0549476486 -60.6116555
0.0576469189 -56.3714925 0.311115918 36.4778059 0.224463065 -46.4187012 0.00159910197 -85.5824688
0.3115747 45.5545663 0.0549476486 -60.6116555 0.00159910197 -85.5824688 0.222100615 -43.5834452
2.62e+09 0.145096816 -78.2103871 0.90718093 -57.2565092 0.0577445805 -57.042828 0.311528264 45.0427948
0.90718093 -57.2565092 0.163874664 -91.0998196 0.311052854 35.8616081 0.0550408238 -61.3119856
0.0577445805 -57.042828 0.311052854 35.8616081 0.224765116 -46.9388683 0.0016166174 -86.3338787
0.311528264 45.0427948 0.0550408238 -61.3119856 0.0016166174 -86.3338787 0.222355939 -44.0715228
2.65e+09 0.14525696 -78.963952 0.907028443 -57.9084822 0.0578406531 -57.7149102 0.311482016 44.5311031
0.907028443 -57.9084822 0.164349137 -91.9548518 0.310989777 35.2455299 0.0551332142 -62.012916
0.0578406531 -57.7149102 0.310989777 35.2455299 0.225069563 -47.4584865 0.00163408938 -87.0882704
0.311482016 44.5311031 0.0551332142 -62.012916 0.00163408938 -87.0882704 0.222613485 -44.5590723
2.68e+09 0.145414584 -79.7136858 0.906875404 -58.5603555 0.0579351293 -58.3877225 0.311435965 44.0194903
0.906875404 -58.5603555 0.16482077 -92.8058241 0.310926699 34.6295708 0.0552248163 -62.7144378
0.0579351293 -58.3877225 0.310926699 34.6295708 0.225376372 -47.9775525 0.00165151624 -87.8455514
0.311435965 44.0194903 0.0552248163 -62.7144378 0.00165151624 -87.8455514 0.22287323 -45.0460905
2.71e+09 0.145569611 -80.4595837 0.906721847 -59.2121292 0.0580280025 -59.0612481 0.311390119 43.5079552
0.906721847 -59.2121292 0.165289417 -93.6527675 0.310863633 34.0137304 0.0553156262 -63.4165422
0.0580280025 -59.0612481 0.310863633 34.0137304 0.225685511 -48.4960632 0.00166889634 -88.6056326
0.311390119 43.5079552 0.0553156262 -63.4165422 0.00166889634 -88.6056326 0.223135153 -45.5325743
2.74e+09 0.145721964 -81.2016414 0.906567804 -59.8638033 0.058119266 -59.7354708 0.311344487 42.9964967
0.906567804 -59.8638033 0.165754935 -94.4957131 0.310800591 33.3980084 0.0554056406 -64.1192205
0.058119266 -59.7354708 0.310800591 33.3980084 0.225996945 -49.0140156 0.00168622805 -89.3684282
0.311344487 42.9964967 0.0554056406 -64.1192205 0.00168622805 -89.3684282 0.22339923 -46.0185208
2.77e+09 0.145871572 -81.9398545 0.906413308 -60.5153778 0.0582089131 -60.4103742 0.311299077 42.4851138
0.906413308 -60.5153778 0.166217186 -95.3346921 0.310737586 32.7824043 0.0554948559 -64.8224641
0.0582089131 -60.4103742 0.310737586 32.7824043 0.226310641 -49.5314068 0.00170350975 -90.1338559
0.311299077 42.4851138 0.0554948559 -64.8224641 0.00170350975 -90.1338559 0.223665439 -46.5039271
2.8e+09 0.146018363 -82.6742192 0.906258394 -61.166853 0.0582969376 -61.0859423 0.311253898 41.9738053
0.906258394 -61.166853 0.166676033 -96.1697356 0.310674628 32.1669176 0.0555832689 -65.5262646
0.0582969376 -61.0859423 0.310674628 32.1669176 0.226626564 -50.0482339 0.00172073983 -90.9018362
0.311253898 41.9738053 0.0555832689 -65.5262646 0.00172073983 -90.9018362 0.223933757 -46.9887904
2.83e+09 0.146162266 -83.4047318 0.906103092 -61.8182289 0.0583833334 -61.7621593 0.311208959 41.4625699
0.906103092 -61.8182289 0.16713134 -97.000875 0.310611731 31.5515479 0.0556708762 -66.2306134
0.0583833334 -61.7621593 0.310611731 31.5515479 0.22694468 -50.564494 0.00173791669 -91.6722928
0.311208959 41.4625699 0.0556708762 -66.2306134 0.00173791669 -91.6722928 0.22420416 -47.4731079
2.86e+09 0.146303216 -84.1313887 0.905947436 -62.4695057 0.0584680946 -62.4390094 0.311164266 40.9514066
0.905947436 -62.4695057 0.167582976 -97.8281414 0.310548906 30.9362944 0.0557576746 -66.9355024
0.0584680946 -62.4390094 0.310548906 30.9362944 0.227264955 -51.0801847 0.00175503876 -92.4451519
0.311164266 40.9514066 0.0557576746 -66.9355024 0.00175503876 -92.4451519 0.224476627 -47.9568769
2.89e+09 0.146441146 -84.8541867 0.905791459 -63.1206838 0.0585512153 -63.1164771 0.311119829 40.440314
0.905791459 -63.1206838 0.168030812 -98.651566 0.310486166 30.3211567 0.0558436609 -67.6409234
0.0585512153 -63.1164771 0.310486166 30.3211567 0.227587353 -51.5953031 0.00177210444 -93.2203425
0.311119829 40.440314 0.0558436609 -67.6409234 0.00177210444 -93.2203425 0.224751132 -48.440095
2.92e+09 0.146575993 -85.5731225 0.905635192 -63.7717633 0.0586326901 -63.7945472 0.311075655 39.929291
0.905635192 -63.7717633 0.168474722 -99.4711797 0.310423521 29.7061341 0.0559288321 -68.3468682
0.0586326901 -63.7945472 0.310423521 29.7061341 0.227911841 -52.1098468 0.00178911219 -93.9977961
0.311075655 39.929291 0.0559288321 -68.3468682 0.00178911219 -93.9977961 0.225027654 -48.9227596
2.95e+09 0.146707696 -86.2881931 0.905478667 -64.4227445 0.0587125136 -64.4732043 0.311031752 39.4183362
0.905478667 -64.4227445 0.168914581 -100.287014 0.310360984 29.0912259 0.0560131852 -69.0533288
0.0587125136 -64.4732043 0.310360984 29.0912259 0.228238383 -52.6238134 0.00180606045 -94.7774465
0.311031752 39.4183362 0.0560131852 -69.0533288 0.00180606045 -94.7774465 0.225306169 -49.4048683
2.98e+09 0.146836196 -86.9993957 0.905321918 -65.0736277 0.0587906805 -65.1524334 0.310988127 38.9074483
0.905321918 -65.0736277 0.169350268 -101.099099 0.310298566 28.4764315 0.0560967173 -69.7602974
0.0587906805 -65.1524334 0.310298566 28.4764315 0.228566944 -53.1372005 0.00182294768 -95.55923
0.310988127 38.9074483 0.0560967173 -69.7602974 0.00182294768 -95.55923 0.225586652 -49.8864188
3.01e+09 0.146961436 -87.7067275 0.905164974 -65.7244134 0.0588671857 -65.8322197 0.310944788 38.3966261
0.905164974 -65.7244134 0.169781665 -101.907465 0.31023628 27.8617502 0.0561794255 -70.4677661
0.0588671857 -65.8322197 0.31023628 27.8617502 0.228897489 -53.6500057 0.00183977235 -96.3430848
0.310944788 38.3966261 0.0561794255 -70.4677661 0.00183977235 -96.3430848 0.225869081 -50.3674088
3.04e+09 0.147083361 -88.4101858 0.905007868 -66.3751019 0.0589420246 -66.5125485 0.310901742 37.8858681
0.905007868 -66.3751019 0.170208656 -102.712145 0.310174135 27.247181 0.0562613069 -71.1757272
0.0589420246 -66.5125485 0.310174135 27.247181 0.229229983 -54.1622269 0.00185653294 -97.1289514
0.310901742 37.8858681 0.0562613069 -71.1757272 0.00185653294 -97.1289514 0.226153431 -50.8478363
3.07e+09 0.147201919 -89.1097681 0.904850631 -67.0256936 0.0590151922 -67.1934051 0.310858996 37.375173
0.904850631 -67.0256936 0.170631126 -103.513166 0.310112145 26.6327233 0.0563423589 -71.8841731
0.0590151922 -67.1934051 0.310112145 26.6327233 0.229564391 -54.6738619 0.00187322794 -97.9167723
0.310858996 37.375173 0.0563423589 -71.8841731 0.00187322794 -97.9167723 0.226439679 -51.327699
3.1e+09 0.14731706 -89.8054719 0.904693295 -67.6761889 0.0590866841 -67.8747751 0.310816557 36.8645394
0.904693295 -67.6761889 0.171048966 -104.310561 0.310050319 26.0183763 0.0564225789 -72.5930962
0.0590866841 -67.8747751 0.310050319 26.0183763 0.229900676 -55.1849086 0.00188985585 -98.7064916
0.310816557 36.8645394 0.0564225789 -72.5930962 0.00188985585 -98.7064916 0.226727801 -51.806995
3.13e+09 0.147428734 -90.4972947 0.904535889 -68.3265884 0.059156496 -68.5566443 0.310774432 36.3539659
0.904535889 -68.3265884 0.171462066 -105.104359 0.309988669 25.4041389 0.0565019641 -73.3024892
0.059156496 -68.5566443 0.309988669 25.4041389 0.230238804 -55.6953652 0.00190641519 -99.4980556
0.310774432 36.3539659 0.0565019641 -73.3024892 0.00190641519 -99.4980556 0.227017772 -52.2857225
3.16e+09 0.147536897 -91.1852342 0.904378444 -68.9768925 0.0592246236 -69.2389986 0.310732628 35.843451
0.904378444 -68.9768925 0.171870321 -105.89459 0.309927207 24.7900105 0.0565805121 -74.0123445
0.0592246236 -69.2389986 0.309927207 24.7900105 0.230578738 -56.2052296 0.00192290449 -100.291412
0.310732628 35.843451 0.0565805121 -74.0123445 0.00192290449 -100.291412 0.227309569 -52.7638794
3.19e+09 0.147641505 -91.8692879 0.904220992 -69.6271019 0.059291063 -69.9218238 0.310691151 35.3329932
0.904220992 -69.6271019 0.172273628 -106.681283 0.309865942 24.1759899 0.0566582204 -74.7226551
0.059291063 -69.9218238 0.309865942 24.1759899 0.230920442 -56.7145001 0.00193932226 -101.08651
0.310691151 35.3329932 0.0566582204 -74.7226551 0.00193932226 -101.08651 0.227603167 -53.2414641
3.22e+09 0.147742515 -92.5494535 0.904063561 -70.277217 0.0593558101 -70.6051062 0.310650007 34.8225912
0.904063561 -70.277217 0.172671886 -107.464469 0.309804886 23.5620764 0.0567350865 -75.4334137
0.0593558101 -70.6051062 0.309804886 23.5620764 0.231263881 -57.2231749 0.00195566707 -101.883302
0.310650007 34.8225912 0.0567350865 -75.4334137 0.00195566707 -101.883302 0.227898542 -53.7184749