! Simulation of a 3-port directional coupler
! P1 and P2 are the thru ports, P3 is coupled to P2
# hz S ma R 50
1e+09 0.134425894 -32.5699793 0.914638151 -21.9036056 0.0504727697 -22.3821989
0.914638151 -21.9036056 0.138985867 -38.2980888 0.314111078 69.3022579
0.0504727697 -22.3821989 0.314111078 69.3022579 0.212671888 -18.1793034
1.03e+09 0.134573781 -33.5170241 0.914560117 -22.5598875 0.0506385856 -22.9839096
0.914560117 -22.5598875 0.139338129 -39.396148 0.314066307 68.6802346
0.0506385856 -22.9839096 0.314066307 68.6802346 0.212805775 -18.7217776
1.06e+09 0.134724761 -34.4615299 0.914479926 -23.2161153 0.050803535 -23.5875974
0.914479926 -23.2161153 0.139698183 -40.4901156 0.314020899 68.0582957
0.050803535 -23.5875974 0.314020899 68.0582957 0.212943435 -19.263991
1.09e+09 0.134878732 -35.4034411 0.914397599 -23.8722874 0.0509675971 -24.1932319
0.914397599 -23.8722874 0.140065826 -41.5799283 0.313974862 67.4364427
0.0509675971 -24.1932319 0.313974862 67.4364427 0.213084852 -19.8059361
1.12e+09 0.135035589 -36.3427039 0.914313158 -24.5284022 0.0511307508 -24.8007828
0.914313158 -24.5284022 0.140440853 -42.6655267 0.313928206 66.8146771
0.0511307508 -24.8007828 0.313928206 66.8146771 0.213230007 -20.3476058
1.15e+09 0.135195225 -37.2792657 0.914226627 -25.1844579 0.0512929758 -25.4102203
0.914226627 -25.1844579 0.140823055 -43.7468546 0.31388094 66.1930002
0.0512929758 -25.4102203 0.31388094 66.1930002 0.213378883 -20.8889927
1.18e+09 0.135357533 -38.2130754 0.914138028 -25.8404529 0.051454252 -26.0215148
0.914138028 -25.8404529 0.141212224 -44.8238596 0.313833075 65.5714136
0.051454252 -26.0215148 0.313833075 65.5714136 0.213531464 -21.4300898
1.21e+09 0.135522404 -39.1440832 0.914047387 -26.4963857 0.0516145594 -26.6346369
0.914047387 -26.4963857 0.141608147 -45.8964929 0.31378462 64.9499186
0.0516145594 -26.6346369 0.31378462 64.9499186 0.21368773 -21.9708899
1.24e+09 0.135689727 -40.0722407 0.913954726 -27.1522546 0.0517738788 -27.2495578
0.913954726 -27.1522546 0.142010613 -46.9647087 0.313735585 64.3285167
0.0517738788 -27.2495578 0.313735585 64.3285167 0.213847663 -22.5113859
1.27e+09 0.135859391 -40.9975012 0.913860072 -27.8080581 0.0519321908 -27.8662486
0.913860072 -27.8080581 0.142419407 -48.0284652 0.31368598 63.7072092
0.0519321908 -27.8662486 0.31368598 63.7072092 0.214011243 -23.051571
1.3e+09 0.136031282 -41.9198191 0.913763449 -28.4637948 0.0520894766 -28.4846809
0.913763449 -28.4637948 0.142834314 -49.0877234 0.313635816 63.0859973
0.0520894766 -28.4846809 0.313635816 63.0859973 0.214178452 -23.591438
1.33e+09 0.136205287 -42.8391502 0.913664883 -29.119463 0.0522457177 -29.1048267
0.913664883 -29.119463 0.143255116 -50.1424479 0.313585103 62.4648825
0.0522457177 -29.1048267 0.313585103 62.4648825 0.214349268 -24.1309803
1.36e+09 0.13638129 -43.7554518 0.913564401 -29.7750612 0.0524008958 -29.7266581
0.913564401 -29.7750612 0.143681597 -51.1926064 0.313533852 61.843866
0.0524008958 -29.7266581 0.313533852 61.843866 0.214523673 -24.670191
1.39e+09 0.136559177 -44.6686826 0.913462029 -30.4305882 0.0525549932 -30.3501476
0.913462029 -30.4305882 0.144113538 -52.2381696 0.313482073 61.222949
0.0525549932 -30.3501476 0.313482073 61.222949 0.214701645 -25.2090634
1.42e+09 0.13673883 -45.5788026 0.913357795 -31.0860423 0.052707992 -30.9752679
0.913357795 -31.0860423 0.144550722 -53.2791114 0.313429777 60.6021328
0.052707992 -30.9752679 0.313429777 60.6021328 0.214883163 -25.7475908
1.45e+09 0.136920132 -46.485773 0.913251727 -31.7414222 0.0528598752 -31.6019922
0.913251727 -31.7414222 0.144992928 -54.3154085 0.313376976 59.9814184
0.0528598752 -31.6019922 0.313376976 59.9814184 0.215068205 -26.2857666
1.48e+09 0.137102965 -47.3895567 0.913143851 -32.3967266 0.0530106256 -32.2302937
0.913143851 -32.3967266 0.145439939 -55.3470406 0.31332368 59.3608071
0.0530106256 -32.2302937 0.31332368 59.3608071 0.215256751 -26.8235843
1.51e+09 0.137287212 -48.2901176 0.913034197 -33.0519541 0.0531602266 -32.8601462
0.913034197 -33.0519541 0.145891535 -56.3739901 0.3132699 58.7402999
0.0531602266 -32.8601462 0.3132699 58.7402999 0.215448776 -27.3610376
1.54e+09 0.137472753 -49.1874209 0.912922793 -33.7071034 0.0533086617 -33.4915235
0.912922793 -33.7071034 0.146347498 -57.3962422 0.313215648 58.119898
0.0533086617 -33.4915235 0.313215648 58.119898 0.215644259 -27.8981199
1.57e+09 0.13765947 -50.0814334 0.91280967 -34.3621732 0.0534559149 -34.1243999
0.91280967 -34.3621732 0.146807608 -58.4137846 0.313160936 57.4996024
0.0534559149 -34.1243999 0.313160936 57.4996024 0.215843177 -28.434825
1.6e+09 0.137847243 -50.9721227 0.912694855 -35.0171623 0.0536019704 -34.75875
0.912694855 -35.0171623 0.147271648 -59.4266077 0.313105774 56.8794141
0.0536019704 -34.75875 0.313105774 56.8794141 0.216045505 -28.9711468
1.63e+09 0.138035952 -51.8594581 0.91257838 -35.6720694 0.0537468127 -35.3945484
0.91257838 -35.6720694 0.147739401 -60.4347042 0.313050175 56.2593341
0.0537468127 -35.3945484 0.313050175 56.2593341 0.216251221 -29.507079
1.66e+09 0.138225479 -52.7434097 0.912460273 -36.3268934 0.0538904265 -36.0317703
0.912460273 -36.3268934 0.148210649 -61.4380692 0.31299415 55.6393633
0.0538904265 -36.0317703 0.31299415 55.6393633 0.216460301 -30.0426155
1.69e+09 0.138415703 -53.623949 0.912340567 -36.9816331 0.0540327969 -36.6703911
0.912340567 -36.9816331 0.148685177 -62.4367002 0.312937712 55.0195027
0.0540327969 -36.6703911 0.312937712 55.0195027 0.216672719 -30.5777505
1.72e+09 0.138606505 -54.5010488 0.912219292 -37.6362874 0.0541739092 -37.3103864
0.912219292 -37.6362874 0.149162769 -63.4305965 0.312880871 54.3997531
0.0541739092 -37.3103864 0.312880871 54.3997531 0.216888451 -31.1124779
1.75e+09 0.138797765 -55.3746828 0.912096479 -38.2908552 0.054313749 -37.9517321
0.912096479 -38.2908552 0.149643212 -64.41976 0.31282364 53.7801153
0.054313749 -37.9517321 0.31282364 53.7801153 0.217107472 -31.646792
1.78e+09 0.138989365 -56.2448258 0.911972159 -38.9453354 0.0544523023 -38.5944045
0.911972159 -38.9453354 0.150126293 -65.4041943 0.312766032 53.1605902
0.0544523023 -38.5944045 0.312766032 53.1605902 0.217329755 -32.180687
1.81e+09 0.139181186 -57.111454 0.911846365 -39.599727 0.0545895552 -39.2383799
0.911846365 -39.599727 0.1506118 -66.383905 0.312708057 52.5411785
0.0545895552 -39.2383799 0.312708057 52.5411785 0.217555276 -32.7141573
1.84e+09 0.13937311 -57.9745443 0.911719127 -40.2540291 0.0547254941 -39.8836353
0.911719127 -40.2540291 0.151099524 -67.3588994 0.31264973 51.921881
0.0547254941 -39.8836353 0.31264973 51.921881 0.217784008 -33.2471971
1.87e+09 0.139565017 -58.834075 0.91159048 -40.9082406 0.0548601059 -40.5301474
0.91159048 -40.9082406 0.151589255 -68.3291868 0.31259106 51.3026984
0.0548601059 -40.5301474 0.31259106 51.3026984 0.218015925 -33.7798011
1.9e+09 0.139756792 -59.690025 0.911460454 -41.5623607 0.0549933773 -41.1778938
0.911460454 -41.5623607 0.152080787 -69.2947781 0.312532063 50.6836312
0.0549933773 -41.1778938 0.312532063 50.6836312 0.218250999 -34.3119639
1.93e+09 0.139948317 -60.5423744 0.911329084 -42.2163884 0.0551252958 -41.8268518
0.911329084 -42.2163884 0.152573915 -70.2556856 0.312472748 50.0646802
0.0551252958 -41.8268518 0.312472748 50.0646802 0.218489204 -34.84368
1.96e+09 0.140139476 -61.3911044 0.911196401 -42.870323 0.0552558487 -42.4769994
0.911196401 -42.870323 0.153068434 -71.2119234 0.31241313 49.4458459
0.0552558487 -42.4769994 0.31241313 49.4458459 0.218730511 -35.3749443
1.99e+09 0.140330153 -62.2361968 0.911062439 -43.5241635 0.0553850239 -43.1283145
0.911062439 -43.5241635 0.153564143 -72.1635067 0.31235322 48.8271289
0.0553850239 -43.1283145 0.31235322 48.8271289 0.218974894 -35.9057515
2.02e+09 0.140520235 -63.0776346 0.910927232 -44.1779093 0.0555128094 -43.7807756
0.910927232 -44.1779093 0.154060842 -73.1104524 0.312293031 48.2085296
0.0555128094 -43.7807756 0.312293031 48.2085296 0.219222324 -36.4360965
2.05e+09 0.140709606 -63.9154015 0.910790813 -44.8315595 0.0556391934 -44.4343612
0.910790813 -44.8315595 0.154558333 -74.0527785 0.312232576 47.5900486
0.0556391934 -44.4343612 0.312232576 47.5900486 0.219472772 -36.9659745
2.08e+09 0.140898155 -64.749482 0.910653215 -45.4851135 0.0557641645 -45.08905
0.910653215 -45.4851135 0.15505642 -74.9905042 0.312171867 46.9716863
0.0557641645 -45.08905 0.312171867 46.9716863 0.219726211 -37.4953804
2.11e+09 0.141085769 -65.5798615 0.910514472 -46.1385706 0.0558877114 -45.7448213
0.910514472 -46.1385706 0.155554909 -75.9236498 0.312110917 46.353443
0.0558877114 -45.7448213 0.312110917 46.353443 0.21998261 -38.0243095
2.14e+09 0.141272338 -66.4065262 0.910374619 -46.7919302 0.0560098232 -46.4016543
0.910374619 -46.7919302 0.156053609 -76.8522368 0.312049738 45.7353191
0.0560098232 -46.4016543 0.312049738 45.7353191 0.220241941 -38.5527569
2.17e+09 0.141457751 -67.2294629 0.910233689 -47.4451916 0.0561304892 -47.0595287
0.910233689 -47.4451916 0.156552329 -77.7762877 0.311988344 45.1173149
0.0561304892 -47.0595287 0.311988344 45.1173149 0.220504174 -39.0807181
2.2e+09 0.1416419 -68.0486593 0.910091716 -48.0983544 0.0562496987 -47.7184241
0.910091716 -48.0983544 0.157050882 -78.6958257 0.311926747 44.4994308
0.0562496987 -47.7184241 0.311926747 44.4994308 0.22076928 -39.6081884
2.23e+09 0.141824679 -68.8641037 0.909948736 -48.7514179 0.0563674416 -48.3783207
0.909948736 -48.7514179 0.157549084 -79.6108751 0.311864959 43.8816669
0.0563674416 -48.3783207 0.311864959 43.8816669 0.221037228 -40.1351635
2.26e+09 0.142005979 -69.675785 0.909804782 -49.4043817 0.0564837078 -49.0391988
0.909804782 -49.4043817 0.158046751 -80.521461 0.311802994 43.2640234
0.0564837078 -49.0391988 0.311802994 43.2640234 0.221307987 -40.6616388
2.29e+09 0.142185698 -70.483693 0.909659889 -50.0572453 0.0565984876 -49.7010388
0.909659889 -50.0572453 0.158543703 -81.4276092 0.311740864 42.6465006
0.0565984876 -49.7010388 0.311740864 42.6465006 0.221581529 -41.1876101
2.32e+09 0.142363731 -71.2878177 0.909514091 -50.7100083 0.0567117713 -50.3638215
0.909514091 -50.7100083 0.159039762 -82.3293461 0.311678582 42.0290985
0.0567117713 -50.3638215 0.311678582 42.0290985 0.22185782 -41.7130732
2.35e+09 0.142539976 -72.08815 0.909367423 -51.3626704 0.0568235496 -51.0275279
0.909367423 -51.3626704 0.159534753 -83.2266988 0.31161616 41.4118172
0.0568235496 -51.0275279 0.31161616 41.4118172 0.222136831 -42.2380238
2.38e+09 0.142714333 -72.8846812 0.909219919 -52.0152311 0.0569338135 -51.6921392
0.909219919 -52.0152311 0.160028501 -84.1196951 0.311553612 40.7946567
0.0569338135 -51.6921392 0.311553612 40.7946567 0.22241853 -42.7624581
2.41e+09 0.142886703 -73.6774032 0.909071615 -52.6676903 0.057042554 -52.3576368
0.909071615 -52.6676903 0.160520838 -85.0083633 0.31149095 40.1776171
0.057042554 -52.3576368 0.31149095 40.1776171 0.222702886 -43.286372
2.44e+09 0.143056987 -74.4663084 0.908922544 -53.3200476 0.0571497625 -53.0240022
0.908922544 -53.3200476 0.161011593 -85.8927319 0.311428186 39.5606984
0.0571497625 -53.0240022 0.311428186 39.5606984 0.222989867 -43.8097616
2.47e+09 0.143225091 -75.2513896 0.908772741 -53.9723027 0.0572554304 -53.6912174
0.908772741 -53.9723027 0.161500603 -86.7728303 0.311365334 38.9439004
0.0572554304 -53.6912174 0.311365334 38.9439004 0.22327944 -44.3326232
2.5e+09 0.143390919 -76.0326401 0.908622241 -54.6244556 0.0573595497 -54.3592644
0.908622241 -54.6244556 0.161987703 -87.6486879 0.311302405 38.327223
0.0573595497 -54.3592644 0.311302405 38.327223 0.223571573 -44.854953
2.53e+09 0.143554379 -76.8100535 0.908471079 -55.276506 0.0574621121 -55.0281255
0.908471079 -55.276506 0.162472733 -88.5203346 0.311239414 37.7106662
0.0574621121 -55.0281255 0.311239414 37.7106662 0.223866235 -45.3767474
2.56e+09 0.143715381 -77.5836241 0.908319289 -55.9284538 0.05756311 -55.6977831
0.908319289 -55.9284538 0.162955534 -89.3878006 0.311176371 37.0942297
0.05756311 -55.6977831 0.311176371 37.0942297 0.224163392 -45.8980029
2.59e+09 0.143873834 -78.3533461 0.908166905 -56.580299 0.0576625356 -56.3682199
0.908166905 -56.580299 0.163435953 -90.2511164 0.31111329 36.4779133
0.0576625356 -56.3682199 0.31111329 36.4779133 0.224463012 -46.4187161
2.62e+09 0.144029652 -79.1192144 0.908013962 -57.2320414 0.0577603817 -57.0394188
0.908013962 -57.2320414 0.163913835 -91.1103127 0.311050182 35.8617167
0.0577603817 -57.0394188 0.311050182 35.8617167 0.224765061 -46.9388836
2.65e+09 0.144182749 -79.8812242 0.907860495 -57.8836812 0.0578566409 -57.7113627
0.907860495 -57.8836812 0.164389031 -91.9654203 0.310987062 35.2456396
0.0578566409 -57.7113627 0.310987062 35.2456396 0.225069506 -47.4585021
2.68e+09 0.144333041 -80.6393709 0.907706537 -58.5352182 0.0579513063 -58.3840351
0.907706537 -58.5352182 0.164861393 -92.8164702 0.31092394 34.6296818
0.0579513063 -58.3840351 0.31092394 34.6296818 0.225376315 -47.9775685
2.71e+09 0.144480446 -81.39365 0.907552122 -59.1866525 0.0580443711 -59.0574192
0.907552122 -59.1866525 0.165330776 -93.6634937 0.310860829 34.0138428
0.0580443711 -59.0574192 0.310860829 34.0138428 0.225685452 -48.4960795
2.74e+09 0.144624884 -82.1440577 0.907397286 -59.8379844 0.0581358286 -59.7314988
0.907397286 -59.8379844 0.165797038 -94.506522 0.310797741 33.3981222
0.0581358286 -59.7314988 0.310797741 33.3981222 0.225996885 -49.0140323
2.77e+09 0.144766278 -82.89059 0.90724206 -60.4892138 0.0582256724 -60.4062577
0.90724206 -60.4892138 0.166260038 -95.3455863 0.31073469 32.7825196
0.0582256724 -60.4062577 0.31073469 32.7825196 0.226310579 -49.5314238
2.8e+09 0.14490455 -83.6332434 0.907086481 -61.1403409 0.0583138964 -61.0816798
0.907086481 -61.1403409 0.166719641 -96.1807179 0.310671685 32.1670345
0.0583138964 -61.0816798 0.310671685 32.1670345 0.2266265 -50.0482512
2.83e+09 0.145039628 -84.3720143 0.90693058 -61.791366 0.0584004943 -61.7577493
0.90693058 -61.791366 0.16717571 -97.0119483 0.310608741 31.5516663
0.0584004943 -61.7577493 0.310608741 31.5516663 0.226944614 -50.5645118
2.86e+09 0.14517144 -85.1068996 0.906774392 -62.4422893 0.0584854605 -62.4344506
0.906774392 -62.4422893 0.167628116 -97.8393087 0.310545868 30.9364146
0.0584854605 -62.4344506 0.310545868 30.9364146 0.227264887 -51.0802028
2.89e+09 0.145299914 -85.837896 0.906617949 -63.093111 0.0585687891 -63.1117682
0.906617949 -63.093111 0.168076727 -98.6628303 0.310483079 30.3212787
0.0585687891 -63.1117682 0.310483079 30.3212787 0.227587284 -51.5953216
2.92e+09 0.145424984 -86.5650006 0.906461286 -63.7438315 0.0586504748 -63.7896867
0.906461286 -63.7438315 0.168521418 -99.4825444 0.310420385 29.706258
0.0586504748 -63.7896867 0.310420385 29.706258 0.22791177 -52.1098657
2.95e+09 0.145546584 -87.2882106 0.906304434 -64.3944511 0.0587305121 -64.4681911
0.906304434 -64.3944511 0.168962065 -100.298482 0.310357798 29.0913518
0.0587305121 -64.4681911 0.310357798 29.0913518 0.22823831 -52.6238326
2.98e+09 0.145664649 -88.0075231 0.906147427 -65.0449701 0.058808896 -65.1472662
0.906147427 -65.0449701 0.169398546 -101.110674 0.31029533 28.4765595
0.058808896 -65.1472662 0.31029533 28.4765595 0.228566869 -53.13722
3.01e+09 0.14577912 -88.7229353 0.905990298 -65.695389 0.0588856214 -65.8268973
0.905990298 -65.695389 0.169830742 -101.919152 0.310232993 27.8618803
0.0588856214 -65.8268973 0.310232993 27.8618803 0.228897412 -53.6500256
3.04e+09 0.145889935 -89.4344447 0.905833078 -66.3457083 0.0589606836 -66.5070697
0.905833078 -66.3457083 0.170258538 -102.723945 0.310170797 27.2473135
0.0589606836 -66.5070697 0.310170797 27.2473135 0.229229904 -54.1622471
3.07e+09 0.145997039 -90.1420486 0.905675799 -66.9959283 0.0590340779 -67.1877689
0.905675799 -66.9959283 0.170681819 -103.525085 0.310108754 26.6328583
0.0590340779 -67.1877689 0.310108754 26.6328583 0.22956431 -54.6738825
3.1e+09 0.146100377 -90.8457444 0.905518494 -67.6460496 0.0591057998 -67.8689805
0.905518494 -67.6460496 0.171100474 -104.322602 0.310046875 26.0185137
0.0591057998 -67.8689805 0.310046875 26.0185137 0.229900593 -55.1849296
3.13e+09 0.146199895 -91.5455295 0.905361195 -68.2960728 0.0591758452 -68.5506903
0.905361195 -68.2960728 0.171514395 -105.116527 0.309985172 25.4042791
0.0591758452 -68.5506903 0.309985172 25.4042791 0.230238718 -55.6953866
3.16e+09 0.146295544 -92.2414013 0.905203931 -68.9459983 0.0592442097 -69.2328842
0.905203931 -68.9459983 0.171923477 -105.906888 0.309923655 24.7901534
0.0592442097 -69.2328842 0.309923655 24.7901534 0.23057865 -56.2052514
3.19e+09 0.146387276 -92.9333572 0.905046735 -69.5958268 0.0593108895 -69.9155482
0.905046735 -69.5958268 0.172327615 -106.693716 0.309862336 24.1761358
0.0593108895 -69.9155482 0.309862336 24.1761358 0.230920352 -56.7145222
3.22e+09 0.146475044 -93.6213945 0.904889638 -70.2455589 0.0593758807 -70.5986685
0.904889638 -70.2455589 0.172726708 -107.47704 0.309801224 23.5622253
0.0593758807 -70.5986685 0.309801224 23.5622253 0.231263789 -57.2231973
3.25e+09 0.146558806 -94.3055106 0.90473267 -70.8951953 0.0594391797 -71.2822315
0.90473267 -70.8951953 0.17312066 -108.256889 0.309740332 22.9484209
0.0594391797 -71.2822315 0.309740332 22.9484209 0.231608924 -57.731275
3.28e+09 0.14663852 -94.9857027 0.90457586 -71.5447367 0.0595007829 -71.9662236
0.90457586 -71.5447367 0.173509372 -109.033293 0.309679669 22.3347216
0.0595007829 -71.9662236 0.309679669 22.3347216 0.231955722 -58.2387537
3.31e+09 0.146714147 -95.661968 0.90441924 -72.1941837 0.0595606871 -72.6506315
0.90441924 -72.1941837 0.173892753 -109.80628 0.309619245 21.7211263
0.0595606871 -72.6506315 0.309619245 21.7211263 0.232304145 -58.7456319
3.34e+09 0.146785652 -96.3343036 0.904262839 -72.8435372 0.0596188889 -73.3354417
0.904262839 -72.8435372 0.17427071 -110.575878 0.309559072 21.1076341
0.0596188889 -73.3354417 0.309559072 21.1076341 0.232654159 -59.251908
3.37e+09 0.146853 -97.0027064 0.904106686 -73.4927979 0.0596753854 -74.0206412
0.904106686 -73.4927979 0.174643157 -111.342116 0.309499159 20.4942437
0.0596753854 -74.0206412 0.309499159 20.4942437 0.233005726 -59.7575806
3.4e+09 0.146916159 -97.6671735 0.903950809 -74.1419666 0.0597301736 -74.7062169
0.903950809 -74.1419666 0.175010006 -112.105021 0.309439517 19.880954
0.0597301736 -74.7062169 0.309439517 19.880954 0.23335881 -60.2626485
3.43e+09 0.146975101 -98.3277015 0.903795239 -74.7910441 0.0597832507 -75.3921559
0.903795239 -74.7910441 0.175371175 -112.864621 0.309380155 19.2677639
0.0597832507 -75.3921559 0.309380155 19.2677639 0.233713374 -60.7671104
3.46e+09 0.147029798 -98.9842873 0.903640003 -75.4400314 0.0598346142 -76.0784454
0.903640003 -75.4400314 0.175726581 -113.620943 0.309321082 18.6546722
0.0598346142 -76.0784454 0.309321082 18.6546722 0.234069383 -61.270965
3.49e+09 0.147080227 -99.6369272 0.903485128 -76.0889292 0.0598842616 -76.7650726
0.903485128 -76.0889292 0.176076147 -114.374014 0.30926231 18.0416776
0.0598842616 -76.7650726 0.30926231 18.0416776 0.234426798 -61.7742113
3.52e+09 0.147126365 -100.285618 0.903330644 -76.7377385 0.0599321904 -77.4520249
0.903330644 -76.7377385 0.176419797 -115.123861 0.309203846 17.428779
0.0599321904 -77.4520249 0.309203846 17.428779 0.234785584 -62.2768482
3.55e+09 0.147168193 -100.930355 0.903176576 -77.3864603 0.0599783986 -78.13929
0.903176576 -77.3864603 0.176757455 -115.870509 0.309145701 16.8159751
0.0599783986 -78.13929 0.309145701 16.8159751 0.235145704 -62.7788746
3.58e+09 0.147205695 -101.571136 0.903022952 -78.0350954 0.060022884 -78.8268552
0.903022952 -78.0350954 0.17708905 -116.613985 0.309087884 16.2032645
0.060022884 -78.8268552 0.309087884 16.2032645 0.235507121 -63.2802897
3.61e+09 0.147238855 -102.207955 0.902869799 -78.683645 0.0600656447 -79.5147085
0.902869799 -78.683645 0.177414514 -117.354315 0.309030404 15.590646
0.0600656447 -79.5147085 0.309030404 15.590646 0.235869798 -63.7810925
3.64e+09 0.147267661 -102.840809 0.902717142 -79.3321099 0.060106679 -80.2028375
0.902717142 -79.3321099 0.177733779 -118.091522 0.308973269 14.9781182
0.060106679 -80.2028375 0.308973269 14.9781182 0.236233698 -64.2812823
3.67e+09 0.147292105 -103.469694 0.902565008 -79.9804913 0.060145985 -80.8912302
0.902565008 -79.9804913 0.178046781 -118.825633 0.308916489 14.3656798
0.060145985 -80.8912302 0.308916489 14.3656798 0.236598784 -64.7808583
3.7e+09 0.14731218 -104.094604 0.902413421 -80.6287901 0.0601835614 -81.5798746
0.902413421 -80.6287901 0.178353457 -119.556672 0.308860071 13.7533293
0.0601835614 -81.5798746 0.308860071 13.7533293 0.23696502 -65.2798198
3.73e+09 0.14732788 -104.715536 0.902262407 -81.2770076 0.0602194067 -82.2687587
0.902262407 -81.2770076 0.178653748 -120.284664 0.308804026 13.1410653
0.0602194067 -82.2687587 0.308804026 13.1410653 0.237332369 -65.7781662
3.76e+09 0.147339204 -105.332484 0.902111991 -81.9251447 0.0602535195 -82.9578706
0.902111991 -81.9251447 0.178947594 -121.009631 0.30874836 12.5288866
0.0602535195 -82.9578706 0.30874836 12.5288866 0.237700793 -66.275897
3.79e+09 0.147346154 -105.945443 0.901962196 -82.5732026 0.0602858988 -83.6471987
0.901962196 -82.5732026 0.179234942 -121.731598 0.308693082 11.9167914
0.0602858988 -83.6471987 0.308693082 11.9167914 0.238070256 -66.7730115
3.82e+09 0.147348731 -106.554409 0.901813046 -83.2211824 0.0603165435 -84.3367312
0.901813046 -83.2211824 0.179515737 -122.450587 0.3086382 11.3047785
0.0603165435 -84.3367312 0.3086382 11.3047785 0.23844072 -67.2695094
3.85e+09 0.147346942 -107.159374 0.901664565 -83.8690854 0.0603454527 -85.0264565
0.901664565 -83.8690854 0.179789929 -123.166622 0.308583722 10.6928463
0.0603454527 -85.0264565 0.308583722 10.6928463 0.238812148 -67.7653902
3.88e+09 0.147340796 -107.760335 0.901516776 -84.5169126 0.0603726256 -85.7163631
0.901516776 -84.5169126 0.180057469 -123.879725 0.308529655 10.0809933
0.0603726256 -85.7163631 0.308529655 10.0809933 0.239184504 -68.2606536
3.91e+09 0.147330302 -108.357285 0.9013697 -85.1646653 0.0603980615 -86.4064395
0.9013697 -85.1646653 0.180318309 -124.589919 0.308476007 9.46921801
0.0603980615 -86.4064395 0.308476007 9.46921801 0.239557751 -68.7552993
3.94e+09 0.147315476 -108.950218 0.901223361 -85.8123448 0.0604217598 -87.0966743
0.901223361 -85.8123448 0.180572406 -125.297224 0.308422786 8.85751883
0.0604217598 -87.0966743 0.308422786 8.85751883 0.239931851 -69.2493271
3.97e+09 0.147296332 -109.539128 0.90107778 -86.4599522 0.0604437202 -87.7870562
0.90107778 -86.4599522 0.180819716 -126.001662 0.308369997 8.24589421
0.0604437202 -87.7870562 0.308369997 8.24589421 0.240306767 -69.7427368
4e+09 0.14727289 -110.124009 0.900932978 -87.1074888 0.0604639423 -88.4775738
0.900932978 -87.1074888 0.1810602 -126.703255 0.30831765 7.63434258
0.0604639423 -88.4775738 0.30831765 7.63434258 0.240682463 -70.2355282
4.03e+09 0.147245171 -110.704854 0.900788976 -87.7549559 0.0604824259 -89.1682161
0.900788976 -87.7549559 0.181293819 -127.402024 0.308265749 7.02286234
0.0604824259 -89.1682161 0.308265749 7.02286234 0.241058902 -70.7277013
4.06e+09 0.1472132 -111.281656 0.900645794 -88.4023547 0.0604991709 -89.8589717
0.900645794 -88.4023547 0.181520538 -128.097988 0.308214303 6.41145188
0.0604991709 -89.8589717 0.308214303 6.41145188 0.241436046 -71.2192559
4.09e+09 0.147177001 -111.85441 0.900503453 -89.0496867 0.0605141774 -90.5498296
0.900503453 -89.0496867 0.181740322 -128.791167 0.308163316 5.80010957
0.0605141774 -90.5498296 0.308163316 5.80010957 0.241813858 -71.7101922
4.12e+09 0.147136606 -112.423106 0.900361971 -89.696953 0.0605274454 -91.2407787
0.900361971 -89.696953 0.181953139 -129.481582 0.308112797 5.18883378
0.0605274454 -91.2407787 0.308112797 5.18883378 0.242192303 -72.2005102
4.15e+09 0.147092045 -112.987739 0.900221368 -90.3441551 0.0605389752 -91.931808
0.900221368 -90.3441551 0.18215896 -130.169252 0.30806275 4.57762285
0.0605389752 -91.931808 0.30806275 4.57762285 0.242571342 -72.6902099
4.18e+09 0.147043353 -113.548302 0.900081662 -90.9912942 0.0605487671 -92.6229066
0.900081662 -90.9912942 0.182357757 -130.854195 0.308013182 3.96647512
0.0605487671 -92.6229066 0.308013182 3.96647512 0.242950938 -73.1792916
4.21e+09 0.146990567 -114.104786 0.899942872 -91.6383718 0.0605568217 -93.3140634
0.899942872 -91.6383718 0.182549503 -131.536431 0.307964099 3.35538891
0.0605568217 -93.3140634 0.307964099 3.35538891 0.243331056 -73.6677554
4.24e+09 0.146933727 -114.657184 0.899805015 -92.2853892 0.0605631394 -94.0052677
0.899805015 -92.2853892 0.182734175 -132.215978 0.307915506 2.74436253
0.0605631394 -94.0052677 0.307915506 2.74436253 0.243711659 -74.1556015
4.27e+09 0.146872875 -115.205488 0.899668108 -92.9323478 0.060567721 -94.6965085
0.899668108 -92.9323478 0.182911751 -132.892854 0.307867409 2.13339427
0.060567721 -94.6965085 0.307867409 2.13339427 0.244092709 -74.6428303
4.3e+09 0.146808057 -115.74969 0.899532168 -93.5792489 0.0605705673 -95.387775
0.899532168 -93.5792489 0.183082211 -133.567077 0.307819813 1.52248244
0.0605705673 -95.387775 0.307819813 1.52248244 0.24447417 -75.129442
4.33e+09 0.146739319 -116.289783 0.899397212 -94.2260941 0.060571679 -96.0790564
0.899397212 -94.2260941 0.183245538 -134.238663 0.307772724 0.91162531
0.060571679 -96.0790564 0.307772724 0.91162531 0.244856005 -75.615437
4.36e+09 0.146666713 -116.825759 0.899263255 -94.8728847 0.0605710574 -96.7703419
0.899263255 -94.8728847 0.183401715 -134.907631 0.307726145 0.300821152
0.0605710574 -96.7703419 0.307726145 0.300821152 0.245238178 -76.1008158
4.39e+09 0.146590291 -117.357608 0.899130312 -95.5196222 0.0605687033 -97.4616208
0.899130312 -95.5196222 0.183550728 -135.573996 0.307680082 -0.309931769
0.0605687033 -97.4616208 0.307680082 -0.309931769 0.245620652 -76.5855787
4.42e+09 0.146510108 -117.885323 0.898998399 -96.1663079 0.0605646181 -98.1528824
0.898998399 -96.1663079 0.183692565 -136.237776 0.30763454 -0.920635195
0.0605646181 -98.1528824 0.30763454 -0.920635195 0.246003391 -77.0697262
4.45e+09 0.146426224 -118.408896 0.898867531 -96.8129433 0.060558803 -98.8441159
0.898867531 -96.8129433 0.183827215 -136.898986 0.307589523 -1.53129088
0.060558803 -98.8441159 0.307589523 -1.53129088 0.246386358 -77.5532589
4.48e+09 0.146338698 -118.928318 0.89873772 -97.4595299 0.0605512594 -99.5353107
0.89873772 -97.4595299 0.183954671 -137.557642 0.307545035 -2.14190057
0.0605512594 -99.5353107 0.307545035 -2.14190057 0.246769517 -78.0361772
4.51e+09 0.146247595 -119.443581 0.898608981 -98.1060691 0.060541989 -100.226456
0.898608981 -98.1060691 0.184074925 -138.21376 0.30750108 -2.75246604
0.060541989 -100.226456 0.30750108 -2.75246604 0.247152832 -78.5184819
4.54e+09 0.14615298 -119.954675 0.898481327 -98.7525624 0.0605309932 -100.917541
0.898481327 -98.7525624 0.184187974 -138.867355 0.307457662 -3.36298906
0.0605309932 -100.917541 0.307457662 -3.36298906 0.247536267 -79.0001734
4.57e+09 0.146054922 -120.461594 0.89835477 -99.3990112 0.0605182737 -101.608556
0.89835477 -99.3990112 0.184293813 -139.518442 0.307414786 -3.97347138
0.0605182737 -101.608556 0.307414786 -3.97347138 0.247919785 -79.4812524
4.6e+09 0.145953493 -120.964328 0.898229323 -100.045417 0.0605038325 -102.299489
0.898229323 -100.045417 0.184392442 -140.167035 0.307372454 -4.58391479
0.0605038325 -102.299489 0.307372454 -4.58391479 0.24830335 -79.9617197
4.63e+09 0.145848767 -121.462869 0.898104997 -100.691781 0.0604876714 -102.99033
0.898104997 -100.691781 0.184483862 -140.813149 0.307330669 -5.19432106
0.0604876714 -102.99033 0.307330669 -5.19432106 0.248686927 -80.4415759
4.66e+09 0.14574082 -121.957209 0.897981804 -101.338106 0.0604697924 -103.681068
0.897981804 -101.338106 0.184568075 -141.456798 0.307289436 -5.80469198
0.0604697924 -103.681068 0.307289436 -5.80469198 0.24907048 -80.9208218
4.69e+09 0.145629731 -122.447339 0.897859754 -101.984392 0.0604501977 -104.371692
0.897859754 -101.984392 0.184645085 -142.097996 0.307248757 -6.41502932
0.0604501977 -104.371692 0.307248757 -6.41502932 0.249453972 -81.3994582
4.72e+09 0.145515583 -122.933251 0.897738858 -102.630641 0.0604288895 -105.062193
0.897738858 -102.630641 0.184714899 -142.736756 0.307208635 -7.02533486
0.0604288895 -105.062193 0.307208635 -7.02533486 0.249837369 -81.8774858
4.75e+09 0.14539846 -123.414938 0.897619125 -103.276854 0.06040587 -105.752559
0.897619125 -103.276854 0.184777524 -143.373091 0.307169073 -7.6356104
0.06040587 -105.752559 0.307169073 -7.6356104 0.250220634 -82.3549056
4.78e+09 0.145278449 -123.89239 0.897500566 -103.923033 0.0603811418 -106.442779
0.897500566 -103.923033 0.184832969 -144.007014 0.307130073 -8.24585771
0.0603811418 -106.442779 0.307130073 -8.24585771 0.250603732 -82.8317183
4.81e+09 0.145155639 -124.3656 0.897383189 -104.56918 0.0603547072 -107.132843
0.897383189 -104.56918 0.184881246 -144.638538 0.307091638 -8.85607857
0.0603547072 -107.132843 0.307091638 -8.85607857 0.250986628 -83.3079248
4.84e+09 0.145030123 -124.834561 0.897267003 -105.215295 0.0603265691 -107.82274
0.897267003 -105.215295 0.184922367 -145.267676 0.30705377 -9.46627476
0.0603265691 -107.82274 0.30705377 -9.46627476 0.251369287 -83.7835261
4.87e+09 0.144901995 -125.299266 0.897152016 -105.861381 0.0602967299 -108.512459
0.897152016 -105.861381 0.184956348 -145.894439 0.30701647 -10.0764481
0.0602967299 -108.512459 0.30701647 -10.0764481 0.251751673 -84.2585231
4.9e+09 0.144771353 -125.759706 0.897038236 -106.507439 0.0602651927 -109.20199
0.897038236 -106.507439 0.184983203 -146.518839 0.306979742 -10.6866003
0.0602651927 -109.20199 0.306979742 -10.6866003 0.252133751 -84.7329168
4.93e+09 0.144638297 -126.215875 0.896925669 -107.15347 0.0602319602 -109.891322
0.896925669 -107.15347 0.185002951 -147.140889 0.306943586 -11.2967331
0.0602319602 -109.891322 0.306943586 -11.2967331 0.252515486 -85.206708