! 4-Port simulation of a differential amplifier
! Port 1: positive input
! Port 2: positive output
! Port 3: negative input
! Port 4: negative output
# HZ S RI R 50
1.00000000000e+007 -2.70270785907e-002 -1.42076156285e-004 -2.58973659811e-016 -3.78960852298e-013 +5.65540389173e-008 +1.53587094037e-004 -2.41254012871e-009 +1.30520578281e-012
                  -2.17563311926e+000 +1.16170872258e-003 -5.28111402387e-008 -1.57079612661e-004 +1.40355162227e+000 -1.21010325945e-003 +7.46331111083e-008 +1.79126548815e-004
                  +7.42919027528e-008 +1.76402352409e-004 -2.47955514964e-009 +1.33598756008e-012 +4.92602680220e-003 -2.09963262523e-004 +6.02560590093e-009 +1.57853396854e-005
                  +1.44534450851e+000 -1.21613778974e-003 +5.73595867981e-008 +1.57079610884e-004 -2.24696776700e+000 +1.32212369834e-003 -8.13960152612e-008 -2.08082860022e-004
4.33000000000e+007 -2.70279937874e-002 -6.15188273852e-004 -9.29359181100e-014 -3.07648817333e-011 +1.06032323076e-006 +6.65030489415e-004 -4.52322683844e-008 +1.05959770934e-010
                  -2.17562267264e+000 +5.03017748322e-003 -9.90148114832e-007 -6.80153184318e-004 +1.40354037246e+000 -5.23972406334e-003 +1.39928433249e-006 +7.75615562611e-004
                  +1.39288712135e-006 +7.63819819770e-004 -4.64887199521e-008 +1.08458710869e-010 +4.92457899035e-003 -9.09138344070e-004 +1.12973081046e-007 +6.83503124161e-005
                  +1.44533323013e+000 -5.26585357699e-003 +1.07542624884e-006 +6.80153040075e-004 -2.24695560262e+000 +5.72477065111e-003 -1.52608096682e-006 -9.00996183214e-004
7.66000000000e+007 -2.70300525330e-002 -1.08829483282e-003 -9.10774552766e-013 -1.70322305413e-010 +3.31831375301e-006 +1.17646778302e-003 -1.41555150173e-007 +5.86624106831e-010
                  -2.17559917295e+000 +8.89856645401e-003 -3.09869814796e-006 -1.20322098882e-003 +1.40351506598e+000 -9.26925846300e-003 +4.37909777885e-006 +1.37209560327e-003
                  +4.35907789281e-006 +1.35122841746e-003 -1.45487234346e-007 +6.00458922108e-010 +4.92132212546e-003 -1.60830374440e-003 +3.53551959268e-007 +1.20914503869e-004
                  +1.44530785936e+000 -9.31548295056e-003 +3.36557859662e-006 +1.20322019024e-003 -2.24692823881e+000 +1.01273240300e-002 -4.77591139059e-006 -1.59389975763e-003
1.09900000000e+008 -2.70332547868e-002 -1.56139155857e-003 -3.85909271060e-012 -5.03000516859e-010 +6.83048097496e-006 +1.68789428251e-003 -2.91377903430e-007 +1.73245069292e-009
                  -2.17556262085e+000 +1.27668142761e-002 -6.37841854023e-006 -1.72627859113e-003 +1.40347570355e+000 -1.32986400131e-002 +9.01400312199e-006 +1.96855977038e-003
                  +8.97279502192e-006 +1.93862132461e-003 -2.99471720254e-007 +1.77330822674e-009 +4.91625628295e-003 -2.30745201856e-003 +7.27755831742e-007 +1.73477313234e-004
                  +1.44526839695e+000 -1.33649594578e-002 +6.92777020128e-006 +1.72627623272e-003 -2.24688567635e+000 +1.45297118761e-002 -9.83081092765e-006 -2.28678608635e-003
1.43200000000e+008 -2.70376004852e-002 -2.03447417680e-003 -1.11238319479e-011 -1.11273313792e-009 +1.15967554739e-005 +2.19930529593e-003 -4.94695423499e-007 +3.83256033092e-009
                  -2.17551301737e+000 +1.66348595970e-002 -1.08292428784e-005 -2.24932155661e-003 +1.40342228630e+000 -1.73278022751e-002 +1.53038909747e-005 +2.56500116413e-003
                  +1.52339308831e-005 +2.52599172098e-003 -5.08436923473e-007 +3.92294552668e-009 +4.90938158008e-003 -3.00657572227e-003 +1.23557473027e-006 +2.26038139765e-004
                  +1.44521484400e+000 -1.74142166530e-002 +1.17619288482e-005 +2.24931633927e-003 -2.24682791646e+000 +1.89318622381e-002 -1.66906608093e-005 -2.97964767317e-003
1.76500000000e+008 -2.70430895421e-002 -2.50753841376e-003 -2.56714256518e-011 -2.08343132063e-009 +1.76170430418e-005 +2.71069613187e-003 -7.51500783572e-007 +7.17602838689e-009
                  -2.17545036393e+000 +2.05026410731e-002 -1.64510810363e-005 -2.77234545116e-003 +1.40335481576e+000 -2.13566788204e-002 +2.32486128975e-005 +3.16141288568e-003
                  +2.31423394273e-005 +3.11333278724e-003 -7.72375714031e-007 +7.34526280682e-009 +4.90069817603e-003 -3.70566741226e-003 +1.87699512793e-006 +2.78596382797e-004
                  +1.44514720204e+000 -2.14631881001e-002 +1.78679565390e-005 +2.77233568224e-003 -2.24675496080e+000 +2.33337031752e-002 -2.53552998667e-005 -3.67247702287e-003
2.09800000000e+008 -2.70497218488e-002 -2.98057999635e-003 -5.12483158977e-011 -3.49897694085e-009 +2.48912246930e-005 +3.22206209968e-003 -1.06178523445e-006 +1.20518710199e-008
                  -2.17537466229e+000 +2.43700973727e-002 -2.32438191835e-005 -3.29534584137e-003 +1.40327329385e+000 -2.53852032331e-002 +3.28479814067e-005 +3.75778803735e-003
                  +3.26978361904e-005 +3.70063770523e-003 -1.09127908666e-006 +1.23360909269e-008 +4.89020627182e-003 -4.40471964652e-003 +2.65199993991e-006 +3.31151441783e-004
                  +1.44506547300e+000 -2.55118073760e-002 +2.52457295007e-005 +3.29532943472e-003 -2.24666681146e+000 +2.77351627606e-002 -3.58245245377e-005 -4.36526664155e-003
2.43100000000e+008 -2.70574972738e-002 -3.45359465230e-003 -9.23806592587e-011 -5.44321579846e-009 +3.34191566680e-005 +3.73339850959e-003 -1.42553820640e-006 +1.87490314369e-008
                  -2.17528591461e+000 +2.82371671786e-002 -3.12073197902e-005 -3.81831829471e-003 +1.40317772290e+000 -2.94133091132e-002 +4.41017699885e-005 +4.35411972297e-003
                  +4.39001983054e-005 +4.28789965825e-003 -1.46513616143e-006 +1.91911854172e-008 +4.87790611033e-003 -5.10372498463e-003 +3.56056852467e-006 +3.83702716308e-004
                  +1.44496965921e+000 -2.95600080731e-002 +3.38950981905e-005 +3.81829277077e-003 -2.24656347096e+000 +3.21361690843e-002 -4.80980888825e-005 -5.05800903690e-003
2.76400000000e+008 -2.70664156631e-002 -3.92657811035e-003 -1.54374158013e-010 -7.99995081712e-009 +4.32006704429e-005 +4.24470067292e-003 -1.84274730810e-006 +2.75563661341e-008
                  -2.17518412339e+000 +3.21037891908e-002 -4.03414216353e-005 -4.34125837968e-003 +1.40306810564e+000 -3.34409300791e-002 +5.70097131089e-005 +4.95040104811e-003
                  +5.67491645153e-005 +4.87511183133e-003 -1.89393418442e-006 +2.82062122834e-008 +4.86379797625e-003 -5.80267598806e-003 +4.60267668518e-006 +4.36249606128e-004
                  +1.44485976339e+000 -3.36077238027e-002 +4.38158873053e-005 +4.34122086558e-003 -2.24644494226e+000 +3.65366502570e-002 -6.21757045960e-005 -5.75069671855e-003
3.09700000000e+008 -2.70764768400e-002 -4.39952610033e-003 -2.43313603663e-010 -1.12529352585e-008 +5.42355727395e-005 +4.75596390222e-003 -2.31339832888e-006 +3.87626311555e-008
                  -2.17506929154e+000 +3.59699021294e-002 -5.06459398165e-005 -4.86416166600e-003 +1.40294444521e+000 -3.74679997713e-002 +7.15715062336e-005 +5.54662512040e-003
                  +7.12444351897e-005 +5.46226741150e-003 -2.37765852867e-006 +3.96767338187e-008 +4.84788219613e-003 -6.50156522044e-003 +5.77829667054e-006 +4.88791511183e-004
                  +1.44473578868e+000 -3.76548881978e-002 +5.50078957925e-005 +4.86410889560e-003 -2.24631122876e+000 +4.09365344128e-002 -7.80570410268e-005 -6.44332219830e-003
3.43000000000e+008 -2.70876806053e-002 -4.87243435340e-003 -3.66061942092e-010 -1.52858659148e-008 +6.65236455385e-005 +5.26718351146e-003 -2.83747523947e-006 +5.26564683725e-008
                  -2.17494142230e+000 +3.98354447370e-002 -6.21206657614e-005 -5.38702372472e-003 +1.40280674513e+000 -4.14944518549e-002 +8.77868058463e-005 +6.14278504976e-003
                  +8.73856723432e-005 +6.04935958805e-003 -2.91629269508e-006 +5.38981944217e-008 +4.83015913829e-003 -7.20038524790e-003 +7.08739717775e-006 +5.41327831634e-004
                  +1.44459773859e+000 -4.17014349158e-002 +6.74708968602e-005 +5.38695203882e-003 -2.24616233429e+000 +4.53357497125e-002 -9.57417251998e-005 -7.13587799050e-003
3.76300000000e+008 -2.71000267369e-002 -5.34529860217e-003 -5.30260195000e-010 -2.01823763470e-008 +8.00646460870e-005 +5.77835481619e-003 -3.41496019259e-006 +6.95263917340e-008
                  -2.17480051929e+000 +4.37003557818e-002 -7.47653672384e-005 -5.90984012844e-003 +1.40265500935e+000 -4.55202200224e-002 +1.05655229469e-004 +6.73887394872e-003
                  +1.05172499656e-004 +6.63638155283e-003 -3.50981831357e-006 +7.11659064333e-008 +4.81062921282e-003 -7.89912863933e-003 +8.52994335368e-006 +5.93857967882e-004
                  +1.44444561707e+000 -4.57472976419e-002 +8.12046379923e-005 +5.90974547483e-003 -2.24599826311e+000 +4.97342243470e-002 -1.15229341835e-004 -7.82835661231e-003
4.09600000000e+008 -2.71135149904e-002 -5.81811458083e-003 -7.44326775874e-010 -2.60260300956e-008 +9.48583069166e-005 +6.28947313370e-003 -4.04583352440e-006 +8.96607735974e-008
                  -2.17464658651e+000 +4.75645740603e-002 -8.85797883714e-005 -6.43260645142e-003 +1.40248924220e+000 -4.95452379972e-002 +1.25176355684e-004 +7.33488493271e-003
                  +1.24604502497e-004 +7.22332650052e-003 -4.15821514431e-006 +9.17750359779e-008 +4.78929287159e-003 -8.59778796668e-003 +1.01058967973e-005 +6.46381320599e-004
                  +1.44427942843e+000 -4.97924100919e-002 +9.62088409627e-005 +6.43248438508e-003 -2.24581901991e+000 +5.41318865402e-002 -1.36519433376e-004 -8.52075058400e-003
4.42900000000e+008 -2.71281450987e-002 -6.29087802535e-003 -1.01745661360e-009 -3.29003139082e-008 +1.10904335857e-004 +6.80053378323e-003 -4.73007375605e-006 +1.13347830997e-007
                  -2.17447962833e+000 +5.14280383995e-002 -1.03563649655e-004 -6.95531826981e-003 +1.40230944840e+000 -5.35694395361e-002 +1.46349724166e-004 +7.93081112026e-003
                  +1.45681227949e-004 +7.81018762888e-003 -4.86146107908e-006 +1.16020588821e-007 +4.76615060817e-003 -9.29635580530e-003 +1.18152155623e-005 +6.98897290748e-004
                  +1.44409917741e+000 -5.38367060148e-002 +1.12483201851e-004 +6.95516395304e-003 -2.24562460985e+000 +5.85286645527e-002 -1.59611500018e-004 -9.21305242927e-003
4.76200000000e+008 -2.71439167722e-002 -6.76358467362e-003 -1.35962056039e-009 -4.08886309857e-008 +1.28202416056e-004 +7.31153208608e-003 -5.46765759415e-006 +1.40875611961e-007
                  -2.17429964947e+000 +5.52906876604e-002 -1.19716647968e-004 -7.47797116173e-003 +1.40211563309e+000 -5.75927584325e-002 +1.69174835701e-004 +8.52664563337e-003
                  +1.68402184838e-004 +8.39695813903e-003 -5.61953214275e-006 +1.44197396243e-007 +4.74120295783e-003 -9.99482473418e-003 +1.36578541596e-005 +7.51405279616e-004
                  +1.44390486913e+000 -5.78801191965e-002 +1.30027391060e-004 +7.47777936436e-003 -2.24541503846e+000 +6.29244866845e-002 -1.84504999737e-004 -9.90525467555e-003
5.09500000000e+008 -2.71608296987e-002 -7.23623026558e-003 -1.78156409892e-009 -5.00742942351e-008 +1.46752205993e-004 +7.82246336584e-003 -6.25855993456e-006 +1.72531981894e-007
                  -2.17410665502e+000 +5.91524607401e-002 -1.37038456599e-004 -8.00056070753e-003 +1.40190780182e+000 -6.16151285192e-002 +1.93651152228e-004 +9.12238159775e-003
                  +1.92766843762e-004 +8.98363123575e-003 -6.43240249491e-006 +1.76600100924e-007 +4.71445049750e-003 -1.06931873363e-002 +1.56337635601e-005 +8.03904688833e-004
                  +1.44369650913e+000 -6.19225834618e-002 +1.48841053337e-004 +8.00032580705e-003 -2.24519031176e+000 +6.73192812783e-002 -2.11199348328e-004 -1.05973498543e-002
5.42800000000e+008 -2.71788835434e-002 -7.70881054343e-003 -2.29480750945e-009 -6.05405194997e-008 +1.66553339504e-004 +8.33332294849e-003 -7.10275386087e-006 +2.08604609824e-007
                  -2.17390065046e+000 +6.30132965749e-002 -1.55528725253e-004 -8.52308248987e-003 +1.40168596050e+000 -6.56364836716e-002 +2.19778096862e-004 +9.71801214306e-003
                  +2.18774637124e-004 +9.57020012772e-003 -7.30004443161e-006 +2.13523142854e-007 +4.68589384572e-003 -1.13914361988e-002 +1.77428911983e-005 +8.56394920403e-004
                  +1.44347410333e+000 -6.59640326784e-002 +1.68923807793e-004 +8.52279847168e-003 -2.24495043618e+000 +7.17129767233e-002 -2.39693919432e-004 -1.12893305012e-002
5.76100000000e+008 -2.71980779491e-002 -8.18132125171e-003 -2.91164314372e-009 -7.23704188488e-008 +1.87605425799e-004 +8.84410616265e-003 -8.00021064907e-006 +2.49380954886e-007
                  -2.17368164163e+000 +6.68731341428e-002 -1.75187080086e-004 -9.04553209391e-003 +1.40145011547e+000 -6.96567578103e-002 +2.47555053937e-004 +1.03135304033e-002
                  +2.46424959165e-004 +1.01566580278e-002 -8.22242838721e-006 +2.55260745255e-007 +4.65553366264e-003 -1.20895639135e-002 +1.99851809754e-005 +9.08875376727e-004
                  +1.44323765804e+000 -7.00044007588e-002 +1.90275247926e-004 +9.04519255152e-003 -2.24469541858e+000 +7.61055014573e-002 -2.69988044583e-004 -1.19811891568e-002
6.09400000000e+008 -2.72184125361e-002 -8.65375813752e-003 -3.64513692328e-009 -8.56469938373e-008 +2.09908049484e-004 +9.35480833968e-003 -8.95089976784e-006 +2.95148252618e-007
                  -2.17344963471e+000 +7.07319124663e-002 -1.96013123715e-004 -9.56790510748e-003 +1.40120027347e+000 -7.36758849043e-002 +2.76981369041e-004 +1.09089295168e-002
                  +2.75717166006e-004 +1.07429981533e-002 -9.19952293637e-006 +3.02106900516e-007 +4.62337064995e-003 -1.27875630771e-002 +2.23605732628e-005 +9.61345460633e-004
                  +1.44298718000e+000 -7.40436216642e-002 +2.12894941641e-004 +9.56750324276e-003 -2.24442526624e+000 +8.04967839710e-002 -3.02081013248e-004 -1.26729183663e-002
6.42700000000e+008 -2.72398869021e-002 -9.12611695065e-003 -4.50912465672e-009 -1.00453128808e-007 +2.33460770589e-004 +9.86542481388e-003 -9.95478888089e-006 +3.46193501411e-007
                  -2.17320463628e+000 +7.45895706150e-002 -2.18006435248e-004 -1.00901971213e-002 +1.40093644161e+000 -7.76937989739e-002 +3.08056349054e-004 +1.15042026270e-002
                  +3.06650575681e-004 +1.13292137262e-002 -1.02312947962e-005 +3.54355356175e-007 +4.58940555082e-003 -1.34854262913e-002 +2.48690049059e-005 +1.01380457539e-003
                  +1.44272267632e+000 -7.80816294065e-002 +2.36782431282e-004 +1.00897257446e-002 -2.24413998691e+000 +8.48867528105e-002 -3.35972072865e-004 -1.33645106804e-002
6.76000000000e+008 -2.72625006227e-002 -9.59839344372e-003 -5.51821251783e-009 -1.16871584174e-007 +2.58263124591e-004 +1.03759509227e-002 -1.10118438502e-005 +4.02803448942e-007
                  -2.17294665327e+000 +7.84460477086e-002 -2.41166570307e-004 -1.06124037289e-002 +1.40065862742e+000 -8.17104340934e-002 +3.40779262197e-004 +1.20993428823e-002
                  +3.39224468186e-004 +1.19152979737e-002 -1.13177088284e-005 +4.12299600890e-007 +4.55363914991e-003 -1.41831461633e-002 +2.75104092285e-005 +1.06625212476e-003
                  +1.44244415452e+000 -8.21183580520e-002 +2.61937233653e-004 +1.06118552597e-002 -2.24383958873e+000 +8.92753365806e-002 -3.71660428896e-004 -1.40559586550e-002
7.09300000000e+008 -2.72862532506e-002 -1.00705833724e-002 -6.68777567911e-009 -1.34984989734e-007 +2.84314622442e-004 +1.08863820067e-002 -1.21220287367e-005 +4.65264578601e-007
                  -2.17267569298e+000 +8.23012829190e-002 -2.65493061054e-004 -1.11345205272e-002 +1.40036683882e+000 -8.57257243946e-002 +3.75149338071e-004 +1.26943434364e-002
                  +3.73438085516e-004 +1.25012441280e-002 -1.24587280418e-005 +4.76232850450e-007 +4.51607227326e-003 -1.48807153060e-002 +3.02847160367e-005 +1.11868751298e-003
                  +1.44215162251e+000 -8.61537417240e-002 +2.88358840049e-004 +1.11338869937e-002 -2.24352408030e+000 +9.36624639482e-002 -4.09145244875e-004 -1.47472548521e-002
7.42600000000e+008 -2.73111443164e-002 -1.05426824953e-002 -8.03395611742e-009 -1.54875838005e-007 +3.11614750593e-004 +1.13967134101e-002 -1.32853058032e-005 +5.33863095948e-007
                  -2.17239176307e+000 +8.61552154738e-002 -2.90985416219e-004 -1.16565431163e-002 +1.40006108414e+000 -8.97396040690e-002 +4.11165767706e-004 +1.32891974486e-002
                  +4.09290631718e-004 +1.30870454268e-002 -1.36543135947e-005 +5.46448033832e-007 +4.47670578829e-003 -1.55781263384e-002 +3.31918516234e-005 +1.17111014484e-003
                  +1.44184508860e+000 -9.01877146057e-002 +3.16046716285e-004 +1.16558161564e-002 -2.24319347063e+000 +9.80480636452e-002 -4.48425642452e-004 -1.54383918396e-002
7.75900000000e+008 -2.73371733284e-002 -1.10146865747e-002 -9.57366248344e-009 -1.76626477553e-007 +3.40162971032e-004 +1.19069404805e-002 -1.45016355175e-005 +6.08884915257e-007
                  -2.17209487158e+000 +9.00077846582e-002 -3.17643121124e-004 -1.21784670998e-002 +1.39974137209e+000 -9.37520073712e-002 +4.48827703614e-004 +1.38838980844e-002
                  +4.46781272935e-004 +1.36726951140e-002 -1.49044247974e-005 +6.23237779234e-007 +4.43554060372e-003 -1.62753718859e-002 +3.62317387735e-005 +1.22351942567e-003
                  +1.44152456149e+000 -9.42202109430e-002 +3.45000302726e-004 +1.21776379610e-002 -2.24284776916e+000 +1.02432064472e-001 -4.89500701459e-004 -1.61293621922e-002
8.09200000000e+008 -2.73643397724e-002 -1.14865913761e-002 -1.13245682217e-008 -2.00319106336e-007 +3.69958721304e-004 +1.24170585696e-002 -1.57709765546e-005 +6.90615646048e-007
                  -2.17178502689e+000 +9.38589298182e-002 -3.45465637722e-004 -1.27002880849e-002 +1.39940771176e+000 -9.77628686216e-002 +4.88134259837e-004 +1.44784385151e-002
                  +4.85909137459e-004 +1.42581864392e-002 -1.62090191153e-005 +7.06894400175e-007 +4.39257766952e-003 -1.69724445802e-002 +3.94042967679e-005 +1.27591476137e-003
                  +1.44119005028e+000 -9.82511650479e-002 +3.75219014324e-004 +1.26993476247e-002 -2.24248698577e+000 +1.06814395300e-001 -5.32369459958e-004 -1.68201584908e-002
8.42500000000e+008 -2.73926431119e-002 -1.19583926685e-002 -1.33051094032e-008 -2.26035765085e-007 +4.01001414558e-004 +1.29270630326e-002 -1.70932857998e-005 +7.79340579583e-007
                  -2.17146223776e+000 +9.77085903632e-002 -3.74452404622e-004 -1.32220016827e-002 +1.39906011268e+000 -1.01772122210e-001 +5.29084512006e-004 +1.50728119188e-002
                  +5.26673315785e-004 +1.48435126583e-002 -1.75680521712e-005 +7.97709881617e-007 +4.34781797683e-003 -1.76693370602e-002 +4.27094413896e-005 +1.32829555845e-003
                  +1.44084156447e+000 -1.02280511301e-001 +4.06702240644e-004 +1.32209403690e-002 -2.24211113077e+000 +1.11194985076e-001 -5.77030914302e-004 -1.75107733237e-002
8.75800000000e+008 -2.74220827882e-002 -1.24300862249e-002 -1.55344843354e-008 -2.53858330690e-007 +4.33290439563e-004 +1.34369492292e-002 -1.84685183503e-005 +8.75344675467e-007
                  -2.17112651332e+000 +1.01556705768e-001 -4.04602837121e-004 -1.37436035081e-002 +1.39869858474e+000 -1.05779702596e-001 +5.71677497389e-004 +1.56670114802e-002
                  +5.69072860665e-004 +1.54286670342e-002 -1.89814777489e-005 +8.95975866113e-007 +4.30126255797e-003 -1.83660419719e-002 +4.61470849287e-005 +1.38066122406e-003
                  +1.44047911394e+000 -1.06308184154e-001 +4.39449345910e-004 +1.37424114194e-002 -2.24172021488e+000 +1.15573762823e-001 -6.23484019197e-004 -1.82011992863e-002
9.09100000000e+008 -2.74526582203e-002 -1.29016678222e-002 -1.80326515822e-008 -2.83868509578e-007 +4.66825160762e-004 +1.39467125231e-002 -1.98966275202e-005 +9.78912548314e-007
                  -2.17077786304e+000 +1.05403215577e-001 -4.35916327243e-004 -1.42650891802e-002 +1.39832313822e+000 -1.09785544317e-001 +6.15912214962e-004 +1.62610303909e-002
                  +6.13106787169e-004 +1.60136428363e-002 -2.04492477957e-005 +1.00198363997e-006 +4.25291248627e-003 -1.90625519688e-002 +4.97171361878e-005 +1.43301116600e-003
                  +1.44010270897e+000 -1.10334118133e-001 +4.73459669034e-004 +1.42637560061e-002 -2.24131424925e+000 +1.19950657647e-001 -6.71727687768e-004 -1.88914289818e-002
9.42400000000e+008 -2.74843688049e-002 -1.33731332412e-002 -2.08203280776e-008 -3.16147831151e-007 +5.01604918290e-004 +1.44563482826e-002 -2.13775648420e-005 +1.09032845433e-006
                  -2.17041629678e+000 +1.09248059406e-001 -4.68392243771e-004 -1.47864543225e-002 +1.39793378382e+000 -1.13789581984e-001 +6.61787625462e-004 +1.68548618498e-002
                  +6.58774072740e-004 +1.65984333414e-002 -2.19713124261e-005 +1.11602411949e-006 +4.20276887610e-003 -1.97588597122e-002 +5.34195004881e-005 +1.48534479272e-003
                  +1.43971236023e+000 -1.14358247842e-001 +5.08732523656e-004 +1.47849693640e-002 -2.24089324548e+000 +1.24325598737e-001 -7.21760791624e-004 -1.95814550211e-002
9.75700000000e+008 -2.75172139169e-002 -1.38444782670e-002 -2.39189874279e-008 -3.50777641194e-007 +5.37629028029e-004 +1.49658518805e-002 -2.29112800707e-005 +1.20987627802e-006
                  -2.17004182472e+000 +1.13091176943e-001 -5.02029932284e-004 -1.53076945627e-002 +1.39753053261e+000 -1.17791750292e-001 +7.09302651454e-004 +1.74484990636e-002
                  +7.06073657262e-004 +1.71830318334e-002 -2.35476199249e-005 +1.23838783716e-006 +4.15083288276e-003 -2.04549578713e-002 +5.72540796753e-005 +1.53766151343e-003
                  +1.43930807878e+000 -1.18380507966e-001 +5.45267198187e-004 +1.53060467327e-002 -2.24045721556e+000 +1.28698515369e-001 -7.73582160926e-004 -2.02712700234e-002
1.00900000000e+009 -2.75511929085e-002 -1.43156986890e-002 -2.73508584989e-008 -3.87839095372e-007 +5.74896781637e-004 +1.54752186945e-002 -2.44977211868e-005 +1.33783951887e-006
                  -2.16965445746e+000 +1.16932507954e-001 -5.36828715196e-004 -1.58288055333e-002 +1.39711339605e+000 -1.21791984017e-001 +7.58456177398e-004 +1.80419352466e-002
                  +7.55004443123e-004 +1.77674316042e-002 -2.51781167506e-005 +1.36936492802e-006 +4.09710570240e-003 -2.11508391238e-002 +6.12207721260e-005 +1.58996073801e-003
                  +1.43888987609e+000 -1.22400833272e-001 +5.83062955848e-004 +1.58269833567e-002 -2.24000617194e+000 +1.33069336908e-001 -8.27190584462e-004 -2.09608666164e-002
1.04230000000e+009 -2.75863051103e-002 -1.47867903014e-002 -3.11389230159e-008 -4.27413152658e-007 +6.13407446590e-004 +1.59844441070e-002 -2.61368343998e-005 +1.47450127812e-006
                  -2.16925420590e+000 +1.20771992285e-001 -5.72787891798e-004 -1.63497828713e-002 +1.39668238601e+000 -1.25790218022e-001 +8.09247049714e-004 +1.86351636212e-002
                  +8.05565295280e-004 +1.83516259534e-002 -2.68627475393e-005 +1.50924511588e-006 +4.04158857198e-003 -2.18464961562e-002 +6.53194727539e-005 +1.64224187714e-003
                  +1.43845776399e+000 -1.26419158611e-001 +6.22119034714e-004 +1.63477744857e-002 -2.23954012745e+000 +1.37437992816e-001 -8.82584809717e-004 -2.16502374365e-002
1.07560000000e+009 -2.76225498306e-002 -1.52577489026e-002 -3.53069148783e-008 -4.69580568832e-007 +6.53160266229e-004 +1.64935235058e-002 -2.78285641518e-005 +1.62014424554e-006
                  -2.16884108133e+000 +1.24609569861e-001 -6.09906738292e-004 -1.68706222190e-002 +1.39623751474e+000 -1.29786387258e-001 +8.61674076854e-004 +1.92281774181e-002
                  +8.57755041330e-004 +1.89356081890e-002 -2.86014551081e-005 +1.65831769972e-006 +3.98428276916e-003 -2.25419216635e-002 +6.95500730168e-005 +1.69450434227e-003
                  +1.43801175473e+000 -1.30435418927e-001 +6.62434647757e-004 +1.68684153750e-002 -2.23905909538e+000 +1.41804412647e-001 -9.39763542956e-004 -2.23393751292e-002
1.10890000000e+009 -2.76599263556e-002 -1.57285702963e-002 -3.98793166128e-008 -5.14421890011e-007 +6.94154459797e-004 +1.70024522837e-002 -2.95728531212e-005 +1.77505068623e-006
                  -2.16841509540e+000 +1.28445180695e-001 -6.48184507839e-004 -1.73913192234e-002 +1.39577879487e+000 -1.33780426768e-001 +9.15736029379e-004 +1.98209698769e-002
                  +9.11572471583e-004 +1.95193716273e-002 -3.03941804589e-005 +1.81687154011e-006 +3.92518961224e-003 -2.32371083504e-002 +7.39124609234e-005 +1.74674754564e-003
                  +1.43755186091e+000 -1.34449549253e-001 +7.04008982893e-004 +1.73889012852e-002 -2.23856308944e+000 +1.46168526058e-001 -9.98725449296e-004 -2.30282723494e-002
1.14220000000e+009 -2.76984339497e-002 -1.61992502908e-002 -4.48813582393e-008 -5.62017446158e-007 +7.36389222490e-004 +1.75112258390e-002 -3.13696422268e-005 +1.93950242753e-006
                  -2.16797626012e+000 +1.32278764886e-001 -6.87620430600e-004 -1.79118695369e-002 +1.39530623942e+000 -1.37772271692e-001 +9.71431640030e-004 +2.04135342457e-002
                  +9.67016339132e-004 +2.01029095934e-002 -3.22408627828e-005 +1.98519504559e-006 +3.86431046008e-003 -2.39320489307e-002 +7.84065210402e-005 +1.79897090033e-003
                  +1.43707809556e+000 -1.38461484716e-001 +7.46841203027e-004 +1.79092274824e-002 -2.23805212373e+000 +1.50530262808e-001 -1.05946915279e-003 -2.37169217617e-002
1.17550000000e+009 -2.77380718552e-002 -1.66697846997e-002 -5.03390150880e-008 -6.12447344659e-007 +7.79863725497e-004 +1.80198395757e-002 -3.32188706310e-005 +2.11378084581e-006
                  -2.16752458783e+000 +1.36110262620e-001 -7.28213713785e-004 -1.84322688172e-002 +1.39481986182e+000 -1.41761857264e-001 +1.02875960380e-003 +2.10058637820e-002
                  +1.02408535993e-003 +2.06862154213e-002 -3.41414394635e-005 +2.16357615914e-006 +3.80164671202e-003 -2.46267361283e-002 +8.30321344992e-005 +1.85117382027e-003
                  +1.43659047207e+000 -1.42471160542e-001 +7.90930446105e-004 +1.84293892389e-002 -2.23752621280e+000 +1.54889552760e-001 -1.12199323652e-003 -2.44053160404e-002
1.20880000000e+009 -2.77788392927e-002 -1.71401693419e-002 -5.62790062487e-008 -6.65791463871e-007 +8.24577116054e-004 +1.85282889033e-002 -3.51204757447e-005 +2.29816685351e-006
                  -2.16706009126e+000 +1.39939614179e-001 -7.69963541689e-004 -1.89525127278e-002 +1.39431967586e+000 -1.45749118820e-001 +1.08771857804e-003 +2.15979517528e-002
                  +1.08277821288e-003 +2.12692824545e-002 -3.60958460820e-005 +2.35230234475e-006 +3.73719980778e-003 -2.53211626769e-002 +8.77891790053e-005 +1.90335572029e-003
                  +1.43608900422e+000 -1.46478512056e-001 +8.36275825161e-004 +1.89493818327e-002 -2.23698537160e+000 +1.59246325887e-001 -1.18629624267e-003 -2.50934478703e-002
1.24210000000e+009 -2.78207354607e-002 -1.76104000415e-002 -6.27287908592e-008 -7.22129446752e-007 +8.70528517489e-004 +1.90365692375e-002 -3.70743932308e-005 +2.49294088607e-006
                  -2.16658278347e+000 +1.43766759938e-001 -8.12869075751e-004 -1.94725969374e-002 +1.39380569572e+000 -1.49733991799e-001 +1.14830718249e-003 +2.21897914346e-002
                  +1.14309353989e-003 +2.18521040457e-002 -3.81040164206e-005 +2.55166057392e-006 +3.67097122738e-003 -2.60153213208e-002 +9.26775288438e-005 +1.95551601610e-003
                  +1.43557370619e+000 -1.50483474687e-001 +8.82876428371e-004 +1.94692005483e-002 -2.23642961552e+000 +1.63600512274e-001 -1.25237667261e-003 -2.57813099467e-002
1.27540000000e+009 -2.78637595361e-002 -1.80804726284e-002 -6.97165675690e-008 -7.81540694442e-007 +9.17717029270e-004 +1.95446759998e-002 -3.90805570094e-005 +2.69838288896e-006
                  -2.16609267789e+000 +1.47591640371e-001 -8.56929454595e-004 -1.99925171210e-002 +1.39327793598e+000 -1.53716411747e-001 +1.21052399942e-003 +2.27813761140e-002
                  +1.20502994597e-003 +2.24346735574e-002 -4.01658824675e-005 +2.76193731229e-006 +3.60296249106e-003 -2.67092048148e-002 +9.76970548890e-005 +2.00765412435e-003
                  +1.43504459253e+000 -1.54485983969e-001 +9.30731319103e-004 +1.99888406763e-002 -2.23585896035e+000 +1.67952042121e-001 -1.32023298703e-003 -2.64688949755e-002
1.30870000000e+009 -2.79079106741e-002 -1.85503829382e-002 -7.72712709190e-008 -8.44104359965e-007 +9.66141727064e-004 +2.00526046183e-002 -4.11388992603e-005 +2.91477230478e-006
                  -2.16558978830e+000 +1.51414196049e-001 -9.02143794082e-004 -2.05122689595e-002 +1.39273641159e+000 -1.57696314316e-001 +1.27436757369e-003 +2.33726990875e-002
                  +1.26858599934e-003 +2.30169843625e-002 -4.22813744214e-005 +2.98341850628e-006 +3.53317515918e-003 -2.74028059246e-002 +1.02847624612e-004 +2.05976946264e-003
                  +1.43450167816e+000 -1.58485975543e-001 +9.79839535974e-004 +2.05082975140e-002 -2.23527342229e+000 +1.72300845745e-001 -1.38986360597e-003 -2.71561956738e-002
1.34200000000e+009 -2.79531880078e-002 -1.90201268121e-002 -8.54225698178e-008 -9.09899341836e-007 +1.01580166278e-003 +2.05603505270e-002 -4.32493504294e-005 +3.14238806025e-006
                  -2.16507412884e+000 +1.55234367649e-001 -9.48511187364e-004 -2.10318481398e-002 +1.39218113788e+000 -1.61673635273e-001 +1.33983641282e-003 +2.39637536626e-002
                  +1.33376023147e-003 +2.35990298437e-002 -4.44504206957e-005 +3.21638956977e-006 +3.46161083213e-003 -2.80961174271e-002 +1.08129102088e-004 +2.11186144955e-003
                  +1.43394497842e+000 -1.62483385165e-001 +1.03020009290e-003 +2.10275663652e-002 -2.23467301798e+000 +1.76646853584e-001 -1.46126690896e-003 -2.78432047702e-002
1.37530000000e+009 -2.79995906491e-002 -1.94897000976e-002 -9.42008647442e-008 -9.79004277800e-007 +1.06669586464e-003 +2.10679091667e-002 -4.54118392330e-005 +3.38150855355e-006
                  -2.16454571397e+000 +1.59052095952e-001 -9.96030704932e-004 -2.15512503552e-002 +1.39161213058e+000 -1.65648310496e-001 +1.40692898713e-003 +2.45545331572e-002