! 4-Port simulation of a differential amplifier
! Ports:
!        +-------+
!   1 o--| +   + |--o 2
!        |In  Out|
!   3 o--| -   - |--o 4
!        +-------+
! This network can be used to verify the single-ended to differential conversion:
!   nw("diff_amp.s4p").s2m("P1,P2,N1,N2").plot_sel_params()
[Version] 2.0
# HZ S RI R 50
[Number of Ports] 4
[Number of Frequencies] 101
[Reference] 50 50 50 50
[Network Data]
1.00000000000e+006 +1.94106844576e-002 -9.98136013140e-001 -5.13104824738e-010 -7.69641652568e-010 +9.63561957217e-009 -3.51492486524e-009 -8.56922702909e-009 -2.46649811059e-008
                  -1.92567653658e-001 +6.19750460363e-002 +2.10000998203e-001 -4.29151814169e-001 +1.96588008183e-001 -6.71594265401e-002 +1.03030023102e-002 +1.57098829161e-002
                  +9.72008358216e-009 -3.58256408079e-009 -8.85764478885e-009 -2.51257046819e-008 -1.50505034218e-002 -9.98113717836e-001 -5.60728596642e-010 -7.81758445619e-010
                  +1.92919474426e-001 -6.48767575273e-002 +1.03310042262e-002 +1.57529550111e-002 -1.96773070881e-001 +7.00986849714e-002 +1.98028342042e-001 -4.21977416877e-001
1.09647819614e+006 -8.05309983717e-002 -9.94526394255e-001 -7.22193521877e-010 -9.11370074338e-010 +1.30883930996e-008 -6.32430725047e-009 -1.38540417951e-008 -3.05652971756e-008
                  -2.18410816365e-001 +9.33258579605e-002 +1.78533066854e-001 -4.07027335225e-001 +2.22182368851e-001 -9.96985483811e-002 +1.18749196350e-002 +1.54878511426e-002
                  +1.31866736527e-008 -6.43574534068e-009 -1.42947164017e-008 -3.10899115997e-008 -1.14992946549e-001 -9.91010377923e-001 -7.80732749043e-010 -9.18781573504e-010
                  +2.18371725572e-001 -9.65124853795e-002 +1.19072061934e-002 +1.55303460826e-002 -2.21945180055e-001 +1.02897283005e-001 +1.67688501762e-001 -3.99454258586e-001
1.20226443462e+006 -1.80422910462e-001 -9.80628034198e-001 -9.90378722889e-010 -1.06425717518e-009 +1.74296751621e-008 -1.07001241781e-008 -2.11157692653e-008 -3.72638012442e-008
                  -2.43632872634e-001 +1.31551091859e-001 +1.50381142742e-001 -3.83983252816e-001 +2.46940545789e-001 -1.39132950136e-001 +1.33525068101e-002 +1.51143456947e-002
                  +1.75352712943e-008 -1.08713921397e-008 -2.17483461553e-008 -3.78367156254e-008 -2.14243757245e-001 -9.73644610330e-001 -1.06058031327e-009 -1.06469340538e-009
                  +2.43144683530e-001 -1.34957657064e-001 +1.33888210331e-002 +1.51558527806e-002 -2.46225041856e-001 +1.42518433730e-001 +1.40644341367e-001 -3.76193046933e-001
1.31825673856e+006 -2.78480013630e-001 -9.56495102676e-001 -1.32956747586e-009 -1.22577833714e-009 +2.27306660037e-008 -1.73101723918e-008 -3.08376574233e-008 -4.46948307742e-008
                  -2.67288492145e-001 +1.76973639217e-001 +1.25450049935e-001 -3.60524240951e-001 +2.69916333290e-001 -1.85737417077e-001 +1.47169619182e-002 +1.46186116249e-002
                  +2.28318029563e-008 -1.75592762172e-008 -3.17032109776e-008 -4.52917716322e-008 -3.11043362755e-001 -9.46214113338e-001 -1.41188036638e-009 -1.21672154564e-009
                  +2.66309087673e-001 -1.80523829978e-001 +1.47569955063e-002 +1.46588001367e-002 -2.68683970371e-001 +1.89226076345e-001 +1.16771547737e-001 -3.52675054746e-001
1.44543977075e+006 -3.72996875306e-001 -9.22559574162e-001 -1.75353162529e-009 -1.39236671164e-009 +2.89872823690e-008 -2.70382250874e-008 -4.35705356511e-008 -5.27370067541e-008
                  -2.88402749626e-001 +2.29762648028e-001 +1.03568958890e-001 -3.37083367237e-001 +2.90147616055e-001 -2.39636062340e-001 +1.59575566040e-002 +1.40301600383e-002
                  +2.90657137043e-008 -2.73841839048e-008 -4.47101075811e-008 -5.33248781973e-008 -4.03750860906e-001 -9.09279086143e-001 -1.84808251843e-009 -1.37111135003e-009
                  +2.86907834493e-001 -2.33373667736e-001 +1.60009719561e-002 +1.40687799955e-002 -2.88378832741e-001 +2.43138626046e-001 +9.58788003377e-002 -3.29307231007e-001
1.58489319246e+006 -4.62446415233e-001 -8.79583011550e-001 -2.27821702840e-009 -1.55915988183e-009 +3.60694031986e-008 -4.10343065469e-008 -5.99385017517e-008 -6.12039881785e-008
                  -3.06007130263e-001 +2.89946092295e-001 +8.45158307211e-002 -3.14016822138e-001 +3.06689795766e-001 -3.00819289507e-001 +1.70704582199e-002 +1.33768622627e-002
                  +3.60993850335e-008 -4.14958851818e-008 -6.13919698109e-008 -6.17411172732e-008 -4.90934311794e-001 -8.63702482001e-001 -2.38480780464e-009 -1.52286788382e-009
                  +3.03990369148e-001 -2.93533468751e-001 +1.71169072429e-002 +1.34137399885e-002 -3.04383810296e-001 +3.04245750051e-001 +7.77313989187e-002 -3.06419391242e-001
1.73780082875e+006 -5.45553067429e-001 -8.28580686874e-001 -2.92209786357e-009 -1.71966343283e-009 +4.36497619890e-008 -6.07722933990e-008 -8.06468860747e-008 -6.98333880560e-008
                  -3.19164601327e-001 +3.57433526502e-001 +6.80389679065e-002 -2.91605109177e-001 +3.18636887103e-001 -3.69169344600e-001 +1.80572860419e-002 +1.26837062755e-002
                  +4.35972493375e-008 -6.13665049925e-008 -8.24523068643e-008 -7.02699083030e-008 -5.71432141855e-001 -8.10567137594e-001 -3.04022012158e-009 -1.66540640210e-009
                  +3.16636393341e-001 -3.60915357444e-001 +1.81064250240e-002 +1.27187365697e-002 -3.15810144657e-001 +3.72433216885e-001 +6.20715341759e-002 -2.84267168359e-001
1.90546071796e+006 -6.21333229089e-001 -7.70731056439e-001 -3.70656953447e-009 -1.86530758545e-009 +5.11051340534e-008 -8.81141668508e-008 -1.06492543654e-007 -7.82723586319e-008
                  -3.26980966160e-001 +4.32043141510e-001 +5.38746327444e-002 -2.70058677400e-001 +3.25128391952e-001 -4.44488236787e-001 +1.89236435047e-002 +1.19721418328e-002
                  +5.09272047654e-008 -8.88546184243e-008 -1.08685978835e-007 -7.85504393117e-008 -6.44380910864e-001 -7.51083448843e-001 -3.83542892432e-009 -1.79008999872e-009
                  +3.23966249209e-001 -4.35343434569e-001 +1.89751439862e-002 +1.20052783609e-002 -3.21812105551e-001 +4.47509803710e-001 +4.86344625742e-002 -2.63038739945e-001
2.08929613085e+006 -6.89102283298e-001 -7.07284449614e-001 -4.65636657018e-009 -1.98487046985e-009 +5.73800570240e-008 -1.25378279786e-007 -1.38375944388e-007 -8.60582046903e-008
                  -3.28602501949e-001 +5.13526875725e-001 +4.17604807490e-002 -2.49526163528e-001 +3.25342819490e-001 -5.26521904089e-001 +1.96777851387e-002 +1.12598884499e-002
                  +5.70245358434e-008 -1.26273407209e-007 -1.40991644094e-007 -8.61118531694e-008 -7.09210935499e-001 -6.86500925319e-001 -4.79490807641e-009 -1.88563111022e-009
                  +3.25138027079e-001 -5.16577839469e-001 +1.97313411482e-002 +1.12911336114e-002 -3.21580071842e-001 +5.29230349823e-001 +3.71605433720e-002 -2.42863612571e-001
2.29086765277e+006 -7.48452999452e-001 -6.39482723035e-001 -5.79998280547e-009 -2.06374061787e-009 +6.08007740153e-008 -1.75405608088e-007 -1.77313909964e-007 -9.25924234457e-008
                  -3.23202326754e-001 +6.01588171087e-001 +3.14450822781e-002 -2.30103774195e-001 +3.18480931428e-001 -6.14975672106e-001 +2.03295014070e-002 +1.05610686930e-002
                  +6.02060182920e-008 -1.76456807255e-007 -1.80384617483e-007 -9.23466570375e-008 -7.65616093811e-001 -6.18034025681e-001 -5.94690783122e-009 -1.93733255461e-009
                  +3.19333806416e-001 -6.04331488337e-001 +2.03848336569e-002 +1.05904638557e-002 -3.14323746625e-001 +6.17310179513e-001 +2.74035351758e-002 -2.23822134847e-001
2.51188643151e+006 -7.99213593882e-001 -5.68497695610e-001 -7.17005999123e-009 -2.08299252350e-009 +5.88248625012e-008 -2.41612648137e-007 -2.24451227225e-007 -9.71067751844e-008
                  -3.09959617746e-001 +6.95888561151e-001 +2.26940949783e-002 -2.11844748546e-001 +3.03743148853e-001 -7.09517798768e-001 +2.08892474135e-002 +9.88654280200e-003
                  +5.79196851399e-008 -2.42812269619e-007 -2.28008296398e-007 -9.64760569281e-008 -8.13506731262e-001 -5.46808430511e-001 -7.32382664394e-009 -1.92614464049e-009
                  +3.05739062012e-001 -6.98275799961e-001 +2.09461051209e-002 +9.91415945345e-003 -2.99249836129e-001 +7.11427803574e-001 +1.91357691451e-002 -2.05954815678e-001
2.75422870334e+006 -8.41394896794e-001 -4.95391771188e-001 -8.80369777507e-009 -2.01825364819e-009 +4.77108866962e-008 -3.28011914298e-007 -2.81068756511e-007 -9.86203438398e-008
                  -2.88036620273e-001 +7.96041132070e-001 +1.52937580374e-002 -1.94768217299e-001 +2.80306083099e-001 -8.09769726858e-001 +2.13675043194e-002 +9.24434599813e-003
                  +4.64146275365e-008 -3.29341061166e-007 -2.85141734866e-007 -9.75062844287e-008 -8.52954970798e-001 -4.73829646606e-001 -8.96249672601e-009 -1.82751886807e-009
                  +2.83520063195e-001 -7.98033516155e-001 +2.14256652879e-002 +9.27027809384e-003 -2.75539033381e-001 +8.11214575990e-001 +1.21508766644e-002 -1.89270877495e-001
3.01995172040e+006 -8.75135349964e-001 -4.21100357291e-001 -1.07426228563e-008 -1.83835058406e-009 +2.20936353389e-008 -4.39170503820e-007 -3.48585036798e-007 -9.58870696705e-008
                  -2.56558518277e-001 +9.01590627486e-001 +9.05236867481e-003 -1.78867077723e-001 +2.47303087648e-001 -9.15283267007e-001 +2.17743422763e-002 +8.64015753669e-003
                  +2.03164419489e-008 -4.40596565496e-007 -3.53200353711e-007 -9.41755079631e-008 -8.84140498796e-001 -3.99972458448e-001 -1.09043222367e-008 -1.61004797101e-009
                  +2.51804228530e-001 -9.03158403603e-001 +2.18336117883e-002 +8.66451513215e-003 -2.42327092265e-001 +9.16231532570e-001 +6.26471070076e-003 -1.73755749345e-001
3.31131121483e+006 -9.00650723725e-001 -3.46433059665e-001 -1.30331389114e-008 -1.50373844916e-009 -2.55440438942e-008 -5.80063934085e-007 -4.28547769191e-007 -8.73339928342e-008
                  -2.14600962175e-001 +1.01198141624e+000 +3.80032458035e-003 -1.64114725780e-001 +2.03813365415e-001 -1.02550622405e+000 +2.21191460533e-002 +8.07775531424e-003
                  -2.79006100935e-008 -5.81537806408e-007 -4.33726171714e-007 -8.48916831585e-008 -9.07302857122e-001 -3.25987608262e-001 -1.31951925083e-008 -1.23389759381e-009
                  +2.09668143431e-001 -1.01310303535e+000 +2.21793550193e-002 +8.10065944104e-003 -1.98694438474e-001 +1.02593489454e+000 +1.31501025939e-003 -1.59377399683e-001
3.63078054770e+006 -9.18193249714e-001 -2.72089231515e-001 -1.57257638257e-008 -9.64743653597e-010 -1.05499559603e-007 -7.55767281120e-007 -5.22610991693e-007 -7.09915409422e-008
                  -1.61189611180e-001 +1.12651575231e+000 -6.10788383209e-004 -1.50470634593e-001 +1.48863719927e-001 -1.13973906018e+000 +2.24104647325e-002 +7.55942942458e-003
                  -1.08541424996e-007 -7.57220268907e-007 -5.28363393035e-007 -6.76628060178e-008 -9.22704110267e-001 -2.52521109055e-001 -1.58850788636e-008 -6.49063026255e-010
                  +1.56137534388e-001 -1.12717703990e+000 +2.24714674349e-002 +7.58100809818e-003 -1.43668345260e-001 +1.13963278260e+000 -2.83975024810e-003 -1.46091534487e-001
3.98107170553e+006 -9.28022847432e-001 -1.98683016777e-001 -1.88744509808e-008 -1.59688416766e-010 -2.31553694011e-007 -9.70910995254e-007 -6.32493385445e-007 -4.44187340701e-008
                  -9.53155461359e-002 +1.24430589473e+000 -4.30969145451e-003 -1.37884857352e-001 +8.14465695136e-002 -1.25708624933e+000 +2.26559512290e-002 +7.08634218044e-003
                  -2.35392479642e-007 -9.72251466261e-007 -6.38814845576e-007 -4.00225977735e-008 -9.30603901882e-001 -1.80141442228e-001 -1.90272125980e-008 +2.06479070378e-010
                  +9.02030169082e-002 -1.24449933599e+000 +2.27176229082e-002 +7.10672739219e-003 -7.62412570300e-002 +1.25643674188e+000 -6.32198997754e-003 -1.33845758657e-001
4.36515832240e+006 -9.30391519978e-001 -1.26773165075e-001 -2.25352936647e-008 +9.86982864218e-010 -4.21688414803e-007 -1.22881950288e-006 -7.59913227783e-007 -4.62823296109e-009
                  -1.59697771270e-002 +1.36422489957e+000 -7.40721673646e-003 -1.26301578505e-001 +5.57240604235e-004 -1.37640719324e+000 +2.28623634783e-002 +6.65883148509e-003
                  -4.26438734844e-007 -1.22992946000e-006 -7.66774898613e-007 +1.04327378870e-009 -9.31247515542e-001 -1.09370176257e-001 -2.26767470778e-008 +1.40859983102e-009
                  +1.08548223382e-002 -1.36394911510e+000 +2.29245979285e-002 +6.67815702213e-003 +4.59173981467e-003 +1.37521289537e+000 -9.23688431443e-003 -1.22582833019e-001
4.78630092323e+006 -9.25540808955e-001 -5.68932702171e-002 -2.67646350041e-008 +2.56639204426e-009 -6.98710813305e-007 -1.53025480710e-006 -9.06496388765e-007 +5.19813381725e-008
                  +7.78009145247e-002 +1.48486233375e+000 -9.99822612901e-003 -1.15661853883e-001 -9.47474308731e-002 -1.49627300752e+000 +2.30356053901e-002 +6.27666010155e-003
                  -7.04486484856e-007 -1.53098666564e-006 -9.13835462345e-007 +5.91628204572e-008 -9.24866549177e-001 -4.07119572545e-002 -2.68888321182e-008 +3.04864223690e-009
                  -8.28612610577e-002 -1.48412177558e+000 +2.30983126735e-002 +6.29506004453e-003 +9.97742722279e-002 +1.49453898470e+000 -1.16742917876e-002 -1.12243168727e-001
5.24807460250e+006 -9.13711284439e-001 +1.04215176132e-002 -3.16165609938e-008 +4.68647925064e-009 -1.09061575007e-006 -1.87171573119e-006 -1.07365588031e-006 +1.29675675367e-007
                  +1.86816211255e-001 +1.60449270185e+000 -1.21635160732e-002 -1.05905679100e-001 -2.05268856771e-001 -1.61493702100e+000 +2.31807912960e-002 +5.93921637898e-003
                  -1.09752482098e-006 -1.87188970638e-006 -1.08136390629e-006 +1.38624938985e-007 -9.11691026481e-001 +2.53198006651e-002 -3.17160854857e-008 +5.23458717922e-009
                  -1.91766137420e-001 -1.60329755798e+000 +2.32438956387e-002 +5.95682414196e-003 +2.10108520111e-001 +1.61267509710e+000 -1.37106340908e-002 -1.02766695366e-001
5.75439937337e+006 -8.95162208660e-001 +7.46148865193e-002 -3.71398501576e-008 +7.47250931244e-009 -1.63046139679e-006 -2.24330816253e-006 -1.26244517605e-006 +2.33405255389e-007
                  +3.11664599780e-001 +1.72106568828e+000 -1.39716268997e-002 -9.69735142564e-002 -3.31567175019e-001 -1.73032809708e+000 +2.33023222982e-002 +5.64567324192e-003
                  -1.63860005555e-006 -2.24271077738e-006 -1.27035557924e-006 +2.44395731700e-007 -8.91971004475e-001 +8.81848689565e-002 -3.72055464612e-008 +8.09145330382e-009
                  -3.16449855760e-001 -1.71943194779e+000 +2.33657601959e-002 +5.66262103757e-003 +3.36155883689e-001 +1.72755714616e+000 -1.54106613438e-002 -9.40942256423e-002
6.30957344480e+006 -8.70198597230e-001 +1.35100010730e-001 -4.33745933436e-008 +1.10664980441e-008 -2.35549501746e-006 -2.62631066733e-006 -1.47339295532e-006 +3.68782524254e-007
                  +4.52591562143e-001 +1.83222780604e+000 -1.54805104096e-002 -8.88073769605e-002 -4.73848609528e-001 -1.84007625845e+000 +2.34039665887e-002 +5.39511240722e-003
                  -2.36494067645e-006 -2.62469492800e-006 -1.48126915440e-006 +3.82090662143e-007 -8.66004854484e-001 +1.47308742654e-001 -4.33953370065e-008 +1.17606036535e-008
                  -4.57159986036e-001 -1.83017740584e+000 +2.34676851284e-002 +5.41153104024e-003 +4.78124609652e-001 +1.83682255234e+000 -1.68290656241e-002 -8.61684227613e-002
6.91830970919e+006 -8.39201869327e-001 +1.91262903885e-001 -5.03488711890e-008 +1.56252596511e-008 -3.30528186386e-006 -2.99070910666e-006 -1.70633370351e-006 +5.42003765410e-007
                  +6.09383955244e-001 +1.93538392944e+000 -1.67390335680e-002 -8.13515983812e-002 -6.31850499932e-001 -1.94157878515e+000 +2.34889385678e-002 +5.18662034697e-003
                  -3.31608597968e-006 -2.98779683061e-006 -1.71385981366e-006 +5.57890973115e-007 -8.34170377701e-001 +2.02088014967e-001 -5.03114306202e-008 +1.63976733110e-008
                  -6.13686223162e-001 -1.93294487974e+000 +2.35528939540e-002 +5.20263925835e-003 +6.35755122914e-001 +1.93787626586e+000 -1.80119270193e-002 -7.89344593774e-002
7.58577575029e+006 -8.02659254959e-001 +2.42479758560e-001 -5.80760567173e-008 +2.13169007854e-008 -4.51869159436e-006 -3.29313780477e-006 -1.96025558653e-006 +7.59708525802e-007
                  +7.81265635772e-001 +2.02780371307e+000 -1.77883123895e-002 -7.45533204045e-002 -8.04739434193e-001 -2.03211122597e+000 +2.35599735823e-002 +5.01936178453e-003
                  -4.53087306114e-006 -3.28862438491e-006 -1.96703211432e-006 +7.78398076032e-007 -7.96953919143e-001 +2.51909650356e-001 -5.79651007612e-008 +2.21689666314e-008
                  -7.85256233547e-001 -2.02501008600e+000 +2.36241298481e-002 +5.03510928853e-003 +8.08218444315e-001 +2.02800155818e+000 -1.89979904028e-002 -7.23404408195e-002
8.31763771103e+006 -7.61186416672e-001 +2.88147775582e-001 -6.65534468564e-008 +2.83158125833e-008 -6.02980489081e-006 -3.47579099850e-006 -2.23319225754e-006 +1.02877845258e-006
                  +9.66822906644e-001 +2.10677168873e+000 -1.86628803937e-002 -6.83627970085e-002 -9.91041202267e-001 -2.10898130435e+000 +2.36193965077e-002 +4.89263569611e-003
                  -6.04334502907e-006 -3.46935252120e-006 -2.23873923866e-006 +1.05042890516e-006 -7.54971989232e-001 +2.96183414140e-001 -6.63517507402e-008 +2.92464021452e-008
                  -9.70461272176e-001 -2.10366335734e+000 +2.36837243832e-002 +4.90823936984e-003 +9.94046352459e-001 +2.10451356933e+000 -1.98197798161e-002 -6.63376510389e-002
9.12010839356e+006 -7.15537763595e-001 +3.27726687640e-001 -7.57629582861e-008 +3.67965223303e-008 -7.86310395764e-006 -3.46688443664e-006 -2.52218626697e-006 +1.35608976506e-006
                  +1.16397899219e+000 +2.16977132441e+000 -1.93917021158e-002 -6.27335500838e-002 -1.18862151918e+000 -2.16971505952e+000 +2.36691833578e-002 +4.80591800379e-003
                  -7.87794413234e-006 -3.45818660525e-006 -2.52595574863e-006 +1.38076771107e-006 -7.08980015593e-001 +3.34384412090e-001 -7.54518396202e-008 +3.78013967088e-008
                  -1.16723072969e+000 -2.16639336184e+000 +2.37336592723e-002 +4.82150520579e-003 +1.19111217911e+000 +2.16494498410e+000 -2.05045623220e-002 -6.08806675640e-002
1.00000000000e+007 -6.66600070614e-001 +3.60785740627e-001 -8.56744949553e-008 +4.69271038767e-008 -1.00286382088e-005 -3.18308639224e-006 -2.82334634789e-006 +1.74824706524e-006
                  +1.37003299099e+000 +2.21468407889e+000 -1.99990453954e-002 -5.76224191672e-002 -1.39473220811e+000 -2.21225541032e+000 +2.37110157611e-002 +4.75889443995e-003
                  -1.00446808794e-005 -3.17179421698e-006 -2.82474487765e-006 +1.77590301625e-006 -6.59864096655e-001 +3.66100298848e-001 -8.52344770992e-008 +4.79984067355e-008
                  -1.37287102045e+000 -2.21108577143e+000 +2.37756209568e-002 +4.77459294708e-003 +1.39667688337e+000 +2.20724408222e+000 -2.10751756698e-002 -5.59273816793e-002
1.09647819614e+007 -6.15367401439e-001 +3.87048961022e-001 -9.62522892199e-008 +5.88631167770e-008 -1.25180958671e-005 -2.53397926643e-006 -3.13200826409e-006 +2.21133705060e-006
                  +1.58177008196e+000 +2.23997704995e+000 -2.05052274950e-002 -5.29895357464e-002 -1.60612841326e+000 -2.23514628539e+000 +2.37463285811e-002 +4.75148644795e-003
                  -1.25352093850e-005 -2.51976612042e-006 -3.13042824851e-006 +2.24178866815e-006 -6.08614112233e-001 +3.91075894821e-001 -9.56639417380e-008 +5.99890991272e-008
                  -1.58417556950e+000 -2.23621053738e+000 +2.38110483271e-002 +4.76742520934e-003 +1.60750595611e+000 +2.22995838478e+000 -2.15507349493e-002 -5.14389518658e-002
1.20226443462e+007 -5.62898677548e-001 +4.06430839160e-001 -1.07464077947e-007 +7.27431446100e-008 -1.53027367383e-005 -1.42811866412e-006 -3.44299079809e-006 +2.75074475891e-006
                  +1.79563730727e+000 +2.24485004318e+000 -2.09272502165e-002 -4.87982456978e-002 -1.81924975471e+000 -2.23767333740e+000 +2.37763512595e-002 +4.78387245093e-003
                  -1.53207635549e-005 -1.41067321242e-006 -3.43784763113e-006 +2.78367103222e-006 -5.56279922926e-001 +4.09247426499e-001 -1.06708937168e-007 +7.39082002873e-008
                  -1.79760023244e+000 -2.24096866612e+000 +2.38411741607e-002 +4.80018246129e-003 +1.82005008513e+000 +2.23237499841e+000 -2.19472332205e-002 -4.73797119802e-002
1.31825673856e+007 -5.10262782481e-001 +4.19055600612e-001 -1.19292506247e-007 +8.86868618262e-008 -1.83338759053e-005 +2.20227455218e-007 -3.75091905610e-006 +3.37106938306e-006
                  +2.00796592456e+000 +2.22931675009e+000 -2.12793385570e-002 -4.50149977604e-002 -2.03044518869e+000 -2.21993684362e+000 +2.38021436508e-002 +4.85650635106e-003
                  -1.83526432029e-005 +2.41197696890e-007 -3.74168935434e-006 +3.40601777226e-006 -5.03915871538e-001 +4.20759833898e-001 -1.18353943364e-007 +8.98719047759e-008
                  -2.00948518166e+000 -2.22537324158e+000 +2.38670610587e-002 +4.87332164422e-003 +2.03066940086e+000 +2.21459333060e+000 -2.22780503078e-002 -4.37170504396e-002
1.44543977075e+007 -4.58478834451e-001 +4.25256002656e-001 -1.31747796483e-007 +1.06796178808e-007 -2.15460863444e-005 +2.48486862218e-006 -4.05057222009e-006 +4.07616151079e-006
                  +2.21521099075e+000 +2.19420517067e+000 -2.15733963855e-002 -4.16092114735e-002 -2.23621158274e+000 -2.18284339123e+000 +2.38246272282e-002 +4.97013470578e-003
                  -2.15654176354e-005 +2.50963779246e-006 -4.03682788749e-006 +4.11256779957e-006 -4.52521378513e-001 +4.25963488000e-001 -1.30611694026e-007 +1.07979334481e-007
                  -2.21629398440e+000 -2.19024986307e+000 +2.38896327604e-002 +4.98759346456e-003 +2.23587139630e+000 +2.17751681386e+000 -2.25543828016e-002 -4.04212725713e-002
1.58489319246e+007 -4.08460326703e-001 +4.25551438052e-001 -1.44880601489e-007 +1.27159486488e-007 -2.48626626564e-005 +5.42318536224e-006 -4.33720709574e-006 +4.86928242170e-006
                  +2.41417486743e+000 +2.14107700382e+000 -2.18193913413e-002 -3.85531345022e-002 -2.43341285301e+000 -2.12801769176e+000 +2.38446125648e-002 +5.12581366542e-003
                  -2.48823887769e-005 +5.45201379949e-006 -4.31864053406e-006 +4.90650068340e-006 -4.02986271188e-001 +4.25390534468e-001 -1.43535720558e-007 +1.28317009308e-007
                  -2.41483663595e+000 -2.13715622439e+000 +2.39097017436e-002 +5.14405943751e-003 +2.43252946216e+000 +2.12276498083e+000 -2.27856070078e-002 -3.74654550704e-002
1.73780082875e+007 -3.60970874727e-001 +4.20608985488e-001 -1.58794127374e-007 +1.49858494177e-007 -2.82023707090e-005 +9.07413056896e-006 -4.60681424974e-006 +5.75336477246e-006
                  +2.60218507978e+000 +2.07208037834e+000 -2.20256797867e-002 -3.58216965607e-002 -2.61945102093e+000 -2.05765021288e+000 +2.38628239626e-002 +5.32492645673e-003
                  -2.82223388558e-005 +9.10727271455e-006 -4.58325169561e-006 +5.79070311139e-006 -3.56048325983e-001 +4.19714844188e-001 -1.57232098520e-007 +1.50965784820e-007
                  -2.60244704448e+000 -2.06823517625e+000 +2.39279939773e-002 +5.34410946216e-003 +2.61805347532e+000 +2.05252153482e+000 -2.29795852204e-002 -3.48252990305e-002
1.90546071796e+007 -3.16596662056e-001 +4.11193841103e-001 -1.73655016020e-007 +1.74976776632e-007 -3.14862732184e-005 +1.34589630197e-005 -4.85627833604e-006 +6.73133859274e-006
                  +2.77720712917e+000 +1.98976089905e+000 -2.21992812834e-002 -3.33923650840e-002 -2.79237118275e+000 -1.97430626560e+000 +2.38799220187e-002 +5.56920197034e-003
                  -3.15063531852e-005 +1.34966775560e-005 -4.82768053303e-006 +6.76809564067e-006 -3.12267739084e-001 +4.09702166333e-001 -1.71869943617e-007 +1.76009362654e-007
                  -2.77709561035e+000 -1.98602619249e+000 +2.39451716090e-002 +5.58948048550e-003 +2.79049448547e+000 +1.96934398237e+000 -2.31429243644e-002 -3.24789861230e-002
2.08929613085e+007 -2.75737213135e-001 +3.98116644739e-001 -1.89702999629e-007 +2.02609009538e-007 -3.46435251179e-005 +1.85843504018e-005 -5.08343352469e-006 +7.80648065407e-006
                  +2.93788613050e+000 +1.89686003578e+000 -2.23461107854e-002 -3.12450062578e-002 -2.95089570122e+000 -1.88072548445e+000 +2.38965248213e-002 +5.86073486064e-003
                  -3.46636124835e-005 +1.86269113697e-005 -5.04988508731e-006 +7.84197825325e-006 -2.72019775551e-001 +3.96157957733e-001 -1.87690725815e-007 +2.03543370320e-007
                  -2.93743078462e+000 -1.89326420497e+000 +2.39618542737e-002 +5.88227666714e-003 +2.94857882208e+000 +1.87596368405e+000 -2.32811948090e-002 -3.04070411030e-002
2.29086765277e+007 -2.38612860865e-001 +3.82184549437e-001 -2.07259839530e-007 +2.32869979767e-007 -3.76153984456e-005 +2.44470675167e-005 -5.28702311187e-006 +8.98274912049e-006
                  +3.08352362984e+000 +1.79612727588e+000 -2.24711755846e-002 -2.93617538969e-002 -3.09439508344e+000 -1.77963742530e+000 +2.39132283779e-002 +6.20200748491e-003
                  -3.76354149943e-005 +2.44947753109e-005 -5.24871346959e-006 +9.01635792188e-006 -2.35503680570e-001 +3.79879540023e-001 -2.05016946776e-007 +2.33684137761e-007
                  -3.08275594834e+000 -1.79269217008e+000 +2.39786396231e-002 +6.22499137818e-003 +3.09167906546e+000 +1.77510197559e+000 -2.33991160389e-002 -2.85922028011e-002
2.51188643151e+007 -2.05284988880e-001 +3.64160977627e-001 -2.26738433371e-007 +2.65902738122e-007 -4.03572683312e-005 +3.10393673120e-005 -5.46658509875e-006 +1.02650761282e-005
                  +3.21400471016e+000 +1.69016512142e+000 -2.25787430415e-002 -2.77268878548e-002 -3.22281123414e+000 -1.67361135694e+000 +2.39306268196e-002 +6.59591397756e-003
                  -4.03771603339e-005 +3.10925587859e-005 -5.42378458389e-006 +1.02962324989e-005 -2.02763793065e-001 +3.61617255325e-001 -2.24261076382e-007 +2.66576583300e-007
                  -3.21295668770e+000 -1.68690640674e+000 +2.39961236179e-002 +6.62053133788e-003 +3.21973752620e+000 +1.66932038505e+000 -2.35007149048e-002 -2.70193050362e-002
2.75422870334e+007 -1.75684125996e-001 +3.44736607919e-001 -2.48653178477e-007 +3.01885614420e-007 -4.28387132811e-005 +3.83541977929e-005 -5.62229106051e-006 +1.16596044267e-005
                  +3.32969432414e+000 +1.58131679082e+000 -2.26724842914e-002 -2.63267230715e-002 -3.33655207524e+000 -1.56494910245e+000 +2.39493329068e-002 +7.04578675345e-003
                  -4.28584484064e-005 +3.84132550901e-005 -5.57532557001e-006 +1.16878186198e-005 -1.73717939676e-001 +3.42046898290e-001 -2.45935824886e-007 +3.02400970619e-007
                  -3.32839736226e+000 -1.57824454410e+000 +2.40149211117e-002 +7.07224318945e-003 +3.33316117081e+000 +1.56091377691e+000 -2.35894613655e-002 -2.56751683764e-002
3.01995172040e+007 -1.49641125744e-001 +3.24511918882e-001 -2.73632734694e-007 +3.41038145096e-007 -4.50421570234e-005 +4.63896845807e-005 -5.75476468545e-006 +1.31738666647e-005
                  +3.43132118951e+000 +1.47159796752e+000 -2.27555984154e-002 -2.51495099579e-002 -3.43637553240e+000 -1.45562148872e+000 +2.39699993799e-002 +7.55542574184e-003
                  -4.50617205986e-005 +4.64550426562e-005 -5.70399165907e-006 +1.31987233565e-005 -1.48188442973e-001 +3.21753548153e-001 -2.70666869374e-007 +3.41378614834e-007
                  -3.42980526191e+000 -1.46871741907e+000 +2.40356872744e-002 +7.58394282188e-003 +3.43270594311e+000 +1.45184698038e+000 -2.36683859752e-002 -2.45485033091e-002
3.31131121483e+007 -1.26917588720e-001 +3.03989998497e-001 -3.02436294713e-007 +3.83626215816e-007 -4.69605832969e-005 +5.51525885236e-005 -5.86490111999e-006 +1.48169150040e-005
                  +3.51986403381e+000 +1.36266772360e+000 -2.28309210072e-002 -2.41853465186e-002 -3.52327714526e+000 -1.34724305972e+000 +2.39933417527e-002 +8.12913065598e-003
                  -4.69799745056e-005 +5.52247415543e-005 -5.81068864667e-006 +1.48380679307e-005 -1.25932050471e-001 +3.01225392280e-001 -2.99209111820e-007 +3.83776854064e-007
                  -3.51815710705e+000 -1.35998006222e+000 +2.40591404599e-002 +8.15994774647e-003 +3.51936469810e+000 +1.34372957261e+000 -2.37401828353e-002 -2.36298251305e-002
3.63078054770e+007 -1.07232935005e-001 +2.83577436139e-001 -3.35974408178e-007 +4.29966880698e-007 -4.85948227693e-005 +6.46606977459e-005 -5.95370118462e-006 +1.65994137793e-005
                  +3.59645018359e+000 +1.25583031396e+000 -2.29010206141e-002 -2.34261023931e-002 -3.59839074206e+000 -1.24107657287e+000 +2.40201632252e-002 +8.77173659690e-003
                  -4.86140511856e-005 +6.47402047643e-005 -5.89641113581e-006 +1.66165763722e-005 -1.06666343087e-001 +2.80855320356e-001 -3.32467485664e-007 +4.29913748762e-007
                  -3.59457786501e+000 -1.25333348617e+000 +2.40860872006e-002 +8.80511282782e-003 +3.59426816217e+000 +1.23782036053e+000 -2.38073013112e-002 -2.29113806683e-002
3.98107170553e+007 -9.02867532554e-002 +2.63590857929e-001 -3.75335371069e-007 +4.80433400999e-007 -4.99507997869e-005 +7.49442833154e-005 -6.02212761209e-006 +1.85337094080e-005
                  +3.66227181639e+000 +1.15205854249e+000 -2.29682861856e-002 -2.28653548359e-002 -3.66290702929e+000 -1.13805802423e+000 +2.40513824925e-002 +9.48865326972e-003
                  -4.99698824649e-005 +7.50317734417e-005 -5.96210296134e-006 +1.85466431576e-005 -9.00913748667e-002 +2.60947870122e-001 -3.71523297711e-007 +4.80163043740e-007
                  -3.66025718989e+000 -1.14974799849e+000 +2.41174501118e-002 +9.52486964825e-003 +3.65860375690e+000 +1.13505233304e+000 -2.38720294962e-002 -2.23870868133e-002