! 4-Port simulation of a differential amplifier
! Ports:
!        +-------+
!   1 o--| +   + |--o 2
!        |In  Out|
!   3 o--| -   - |--o 4
!        +-------+
! This network can be used to verify the single-ended to differential conversion:
!   nw("diff_amp.s4p").s2m("P1,P2,N1,N2").plot_sel_params()
[Version] 2.0
# HZ S RI R 50
[Number of Ports] 4
[Number of Frequencies] 101
[Reference] 50 50 50 50
[Network Data]
1.00000000000e+006 +1.92976821156e-002 -9.98139523759e-001 -5.12885365205e-010 -7.68298470222e-010 +9.61732373898e-009 -3.51339702049e-009 -8.57724097854e-009 -2.46291087188e-008
                  -1.92293306790e-001 +6.20461446425e-002 +2.10177952435e-001 -4.28823888648e-001 +1.96304150895e-001 -6.72276463850e-002 +1.03087327800e-002 +1.56882559094e-002
                  +9.70149958566e-009 -3.58099347426e-009 -8.86581245672e-009 -2.50890747712e-008 -1.51675315993e-002 -9.98113348978e-001 -5.60453017664e-010 -7.80360247038e-010
                  +1.92641719855e-001 -6.49437645663e-002 +1.03366517836e-002 +1.57311183258e-002 -1.96485963478e-001 +7.01625966832e-002 +1.98216545210e-001 -4.21649121444e-001
1.09647819614e+006 -8.06672834575e-002 -9.94517074531e-001 -7.21821869852e-010 -9.09686250150e-010 +1.30627592629e-008 -6.32051921202e-009 -1.38615315983e-008 -3.05175379488e-008
                  -2.18075907770e-001 +9.33894489477e-002 +1.78739765425e-001 -4.06699309275e-001 +2.21836760021e-001 -9.97577833147e-002 +1.18793420643e-002 +1.54642326543e-002
                  +1.31606482527e-008 -6.43183796784e-009 -1.43022958663e-008 -3.10411354663e-008 -1.15133162744e-001 -9.90995933581e-001 -7.80286267708e-010 -9.17037694566e-010
                  +2.18033579808e-001 -9.65710965965e-002 +1.19115271176e-002 +1.55065145929e-002 -2.21596556384e-001 +1.02951313038e-001 +1.67906004070e-001 -3.99126941560e-001
1.20226443462e+006 -1.80584229957e-001 -9.80600598876e-001 -9.89808926951e-010 -1.06215644039e-009 +1.73940246681e-008 -1.06927249307e-008 -2.11217841280e-008 -3.72008387219e-008
                  -2.43228306555e-001 +1.31602126742e-001 +1.50615921536e-001 -3.83657778635e-001 +2.46524124017e-001 -1.39177887839e-001 +1.33555592542e-002 +1.50888618299e-002
                  +1.74991066196e-008 -1.08637512678e-008 -2.17543335421e-008 -3.77724191339e-008 -2.14408632167e-001 -9.73610722892e-001 -1.05991358247e-009 -1.06252850840e-009
                  +2.42737179200e-001 -1.35002823066e-001 +1.33917541208e-002 +1.51301543837e-002 -2.45805976756e-001 +1.42557277498e-001 +1.40889319876e-001 -3.75869179668e-001
1.31825673856e+006 -2.78667372914e-001 -9.56443498248e-001 -1.32874467275e-009 -1.22316332557e-009 +2.26813358760e-008 -1.72972128017e-008 -3.08408832690e-008 -4.46125076108e-008
                  -2.66804118311e-001 +1.77006371951e-001 +1.25710853165e-001 -3.60203395508e-001 +2.69418999534e-001 -1.85762048387e-001 +1.47186390562e-002 +1.45913665234e-002
                  +2.27818193583e-008 -1.75458913248e-008 -3.17062219391e-008 -4.52077341233e-008 -3.11233589034e-001 -9.46154722869e-001 -1.41093480075e-009 -1.21403930040e-009
                  +2.65822191916e-001 -1.80549826328e-001 +1.47585365132e-002 +1.46313404238e-002 -2.68184489187e-001 +1.89243755448e-001 +1.17041842955e-001 -3.52356521743e-001
1.44543977075e+006 -3.73210360077e-001 -9.22477133458e-001 -1.75238935814e-009 -1.38911145090e-009 +2.89192189555e-008 -2.70168971105e-008 -4.35691957784e-008 -5.26300843795e-008
                  -2.87827038941e-001 +2.29770594551e-001 +1.03853494916e-001 -3.36768634850e-001 +2.89557902367e-001 -2.39633639322e-001 +1.59578999631e-002 +1.40012232087e-002
                  +2.89968457370e-008 -2.73621667866e-008 -4.47082749498e-008 -5.32157919935e-008 -4.03966205039e-001 -9.09187604500e-001 -1.84678746410e-009 -1.36778686340e-009
                  +2.86330119879e-001 -2.33374047868e-001 +1.60011637174e-002 +1.40396295494e-002 -2.87787575701e-001 +2.43128439271e-001 +9.61720662820e-002 -3.28995327269e-001
1.58489319246e+006 -4.62685072792e-001 -8.79462648349e-001 -2.27667322179e-009 -1.55510011760e-009 +3.59755833265e-008 -4.10005418661e-008 -5.99302188600e-008 -6.10658280025e-008
                  -3.05326766459e-001 +2.89921910588e-001 +8.48217073466e-002 -3.13709115384e-001 +3.05994451298e-001 -3.00782200896e-001 +1.70695451140e-002 +1.33462604227e-002
                  +3.60046054217e-008 -4.14610648008e-008 -6.13828018529e-008 -6.16002684255e-008 -4.91173522701e-001 -8.63571986870e-001 -2.38307630932e-009 -1.51873799449e-009
                  +3.03308603558e-001 -2.93500936764e-001 +1.71158285168e-002 +1.33829262172e-002 -3.03687617317e-001 +3.04200141315e-001 +7.80452298406e-002 -3.06114853654e-001
1.73780082875e+006 -5.45814850433e-001 -8.28415106341e-001 -2.92004903039e-009 -1.71458429278e-009 +4.35203817262e-008 -6.07201410346e-008 -8.06284871598e-008 -6.96555334252e-008
                  -3.18364000091e-001 +3.57368793857e-001 +6.83638009841e-002 -2.91304815537e-001 +3.17820393767e-001 -3.69088886167e-001 +1.80552188181e-002 +1.26514191020e-002
                  +4.34667612953e-008 -6.13128002803e-008 -8.24324872982e-008 -7.00887578394e-008 -5.71692919342e-001 -8.10390572593e-001 -3.03794288650e-009 -1.66025735869e-009
                  +3.15835060040e-001 -3.60841538586e-001 +1.81041796562e-002 +1.26862394726e-002 -3.14993572617e-001 +3.72343538804e-001 +6.24035636491e-002 -2.83970228641e-001
1.90546071796e+006 -6.21614998062e-001 -7.70512957576e-001 -3.70388265763e-009 -1.85892793122e-009 +5.09264915664e-008 -8.80348293011e-008 -1.06459782936e-007 -7.80439928498e-008
                  -3.26041735240e-001 +4.31928009502e-001 +5.42161268330e-002 -2.69765720063e-001 +3.24172423594e-001 -4.44354257986e-001 +1.89205401262e-002 +1.19381006878e-002
                  +5.07473296091e-008 -8.87730682380e-008 -1.08651083392e-007 -7.83180804058e-008 -6.44659926692e-001 -7.50853808236e-001 -3.83246588614e-009 -1.78364187653e-009
                  +3.23027010004e-001 -4.35218524744e-001 +1.89718514300e-002 +1.19710292854e-002 -3.20856891192e-001 +4.47365959009e-001 +4.89824349946e-002 -2.62749188294e-001
2.08929613085e+006 -6.89399854890e-001 -7.07006701505e-001 -4.65286789880e-009 -1.97682309651e-009 +5.71330425052e-008 -1.25258629321e-007 -1.38323111018e-007 -8.57654556965e-008
                  -3.27502855809e-001 +5.13349585401e-001 +4.21164838559e-002 -2.49240067069e-001 +3.24225658204e-001 -5.26322314181e-001 +1.96737716252e-002 +1.12239770844e-002
                  +5.67762095485e-008 -1.26150678765e-007 -1.40935739907e-007 -8.58143150084e-008 -7.09503892096e-001 -6.86211408654e-001 -4.79107685922e-009 -1.87751813123e-009
                  +3.24039141389e-001 -5.16390116710e-001 +1.97271288592e-002 +1.12550159936e-002 -3.20464553133e-001 +5.29020294142e-001 +3.75223607078e-002 -2.42580863576e-001
2.29086765277e+006 -7.48761222309e-001 -6.39138505467e-001 -5.79544251285e-009 -2.05354725056e-009 +6.04588699513e-008 -1.75225921292e-007 -1.77233275882e-007 -9.22174803927e-008
                  -3.21916469296e-001 +6.01334410365e-001 +3.18136185693e-002 -2.29823728409e-001 +3.17176854504e-001 -6.14695788132e-001 +2.03247062619e-002 +1.05231250328e-002
                  +5.98628011656e-008 -1.76272920936e-007 -1.80299700136e-007 -9.19660209313e-008 -7.65917802452e-001 -6.17678156613e-001 -5.94196801123e-009 -1.92707826759e-009
                  +3.18049519041e-001 -6.04066668344e-001 +2.03798314909e-002 +1.05523150464e-002 -3.13022255329e-001 +6.17019268081e-001 +2.77772831951e-002 -2.23545289831e-001
2.51188643151e+006 -7.99526433696e-001 -5.68080603955e-001 -7.16417124308e-009 -2.07003234363e-009 +5.83515592180e-008 -2.41343178137e-007 -2.24332275233e-007 -9.66267766500e-008
                  -3.08457108099e-001 +6.95540643665e-001 +2.30733800071e-002 -2.11569666159e-001 +3.02221801489e-001 -7.09139514813e-001 +2.08837979205e-002 +9.84636110888e-003
                  +5.74451906914e-008 -2.42537159544e-007 -2.27883504029e-007 -9.59893448804e-008 -8.13811192726e-001 -5.46380142653e-001 -7.31745836578e-009 -1.91313070641e-009
                  +3.04238974022e-001 -6.97916214804e-001 +2.09404416150e-002 +9.87377291596e-003 -2.97732076107e-001 +7.11037961039e-001 +1.95197277186e-002 -2.05682717919e-001
2.75422870334e+006 -8.41705515748e-001 -4.94895893118e-001 -8.79604823270e-009 -2.00172387367e-009 +4.70564446648e-008 -3.27607755510e-007 -2.80897108345e-007 -9.80059926509e-008
                  -2.86281741160e-001 +7.95576972810e-001 +1.56822009492e-002 -1.94496783222e-001 +2.78531856750e-001 -8.09270480163e-001 +2.13615244620e-002 +9.20167889906e-003
                  +4.57593034458e-008 -3.28929426639e-007 -2.84962258377e-007 -9.68840759079e-008 -8.53255445991e-001 -4.73323345720e-001 -8.95427171339e-009 -1.81094604335e-009
                  +2.81768505040e-001 -7.97557091277e-001 +2.14194655749e-002 +9.22740546571e-003 -2.73769464112e-001 +8.10703264700e-001 +1.25435184564e-002 -1.89002158540e-001
3.01995172040e+006 -8.75436171797e-001 -4.20520333695e-001 -1.07326559732e-008 -1.81721745440e-009 +2.11911992770e-008 -4.38563983427e-007 -3.48340974863e-007 -9.51009266376e-008
                  -2.54509674804e-001 +9.00982487193e-001 +9.44856530447e-003 -1.78597788972e-001 +2.45234532481e-001 -9.14634773250e-001 +2.17679519905e-002 +8.59471759121e-003
                  +1.94137097586e-008 -4.39980247748e-007 -3.52945935942e-007 -9.33802383319e-008 -8.84429563028e-001 -3.99383073899e-001 -1.08936643355e-008 -1.58888740596e-009
                  +2.49759662941e-001 -9.02537404786e-001 +2.18269968524e-002 +8.61886781934e-003 -2.40264345767e-001 +9.15570491370e-001 +6.66469193466e-003 -1.73488865927e-001
3.31131121483e+006 -9.00933482543e-001 -3.45764143846e-001 -1.30201015640e-008 -1.47667686271e-009 -2.67828198530e-008 -5.79153481936e-007 -4.28204212894e-007 -8.63284031334e-008
                  -2.12210151202e-001 +1.01119438552e+000 +4.20304463869e-003 -1.63845922121e-001 +2.01402677839e-001 -1.02467295352e+000 +2.21124615408e-002 +8.02921593119e-003
                  -2.91386951452e-008 -5.80614644401e-007 -4.33369055902e-007 -8.38755790954e-008 -9.07572438262e-001 -3.25310647327e-001 -1.31813248959e-008 -1.20683135937e-009
                  +2.07282638142e-001 -1.01230255639e+000 +2.21724420180e-002 +8.05190955529e-003 -1.96290810451e-001 +1.02508861958e+000 +1.72115650319e-003 -1.59110661532e-001
3.63078054770e+006 -9.18449027185e-001 -2.71327359674e-001 -1.57086358277e-008 -9.30063708023e-010 -1.07188933781e-007 -7.54401390735e-007 -5.22130750280e-007 -6.97061544612e-008
                  -1.58402017402e-001 +1.12550595004e+000 -2.02617580580e-004 -1.50200520561e-001 +1.46056362147e-001 -1.13867643071e+000 +2.24035996031e-002 +7.50742503749e-003
                  -1.10228550726e-007 -7.55838047057e-007 -5.27865541856e-007 -6.63654217448e-008 -9.22945516891e-001 -2.51752726038e-001 -1.58669525778e-008 -6.14411543711e-010
                  +1.53356360698e-001 -1.12615320533e+000 +2.24643708546e-002 +7.52878864681e-003 -1.40869417294e-001 +1.13855672582e+000 -2.42846106205e-003 -1.45823123806e-001
3.98107170553e+006 -9.28242108411e-001 -1.97824899591e-001 -1.88518509424e-008 -1.15247299744e-010 -2.33837392733e-007 -9.68865519372e-007 -6.31825464250e-007 -4.27775987605e-008
                  -9.20693391862e-002 +1.24301836577e+000 -3.89700293554e-003 -1.37611516537e-001 +7.81810960460e-002 -1.25573852284e+000 +2.26490183002e-002 +7.03046765483e-003
                  -2.37671573992e-007 -9.70185201834e-007 -6.38124207809e-007 -3.83679339886e-008 -9.30807852332e-001 -1.79278530785e-001 -1.90034116790e-008 +2.50844000800e-010
                  +8.69644483188e-002 -1.24319720378e+000 +2.27104563783e-002 +7.05063169443e-003 -7.29857246416e-002 +1.25507521392e+000 -5.90644571835e-003 -1.33573742214e-001
4.36515832240e+006 -9.30564160616e-001 -1.25816405324e-001 -2.25053544272e-008 +1.04388480293e-009 -4.24740677714e-007 -1.22576619197e-006 -7.58987916389e-007 -2.53647007092e-009
                  -1.21962021226e-002 +1.36259121631e+000 -6.99082228282e-003 -1.26022981110e-001 -3.23457573735e-003 -1.37470508325e+000 +2.28554771146e-002 +6.59864076724e-003
                  -4.29482939312e-007 -1.22684994209e-006 -7.65820453312e-007 +3.15005563446e-009 -9.31404182153e-001 -1.08410488516e-001 -2.26453629474e-008 +1.46535719438e-009
                  +7.09022558415e-003 -1.36230028368e+000 +2.29174765788e-002 +6.61773736174e-003 +8.37194089313e-003 +1.37349668006e+000 -8.81785694858e-003 -1.22305167855e-001
4.78630092323e+006 -9.25656233581e-001 -5.58365054102e-002 -2.67248407569e-008 +2.63913152604e-009 -7.02732240604e-007 -1.52571881121e-006 -9.05218813506e-007 +5.46412235360e-008
                  +8.21770464486e-002 +1.48279793648e+000 -9.57883437544e-003 -1.15375858504e-001 -9.91400678424e-002 -1.49413103572e+000 +2.30288843210e-002 +6.21166413461e-003
                  -7.08494914765e-007 -1.52641796981e-006 -9.12520725103e-007 +6.18390301850e-008 -9.24965633726e-001 -3.96542473848e-002 -2.68473002439e-008 +3.12113992686e-009
                  -8.72269361665e-002 -1.48204173002e+000 +2.30913559705e-002 +6.22982558518e-003 +1.04153436066e-001 +1.49238270312e+000 -1.12524551592e-002 -1.11957702400e-001
5.24807460250e+006 -9.13758527747e-001 +1.15784556310e-002 -3.15635371785e-008 +4.77924618650e-009 -1.09581988620e-006 -1.86501992187e-006 -1.07189766380e-006 +1.33047732250e-007
                  +1.91875521150e-001 +1.60189405435e+000 -1.17417498633e-002 -1.05610029575e-001 -2.10341997452e-001 -1.61225070299e+000 +2.31743618993e-002 +5.86888031520e-003
                  -1.10270904979e-006 -1.86515354921e-006 -1.07955854539e-006 +1.42014216643e-007 -9.11721882710e-001 +2.64756174602e-002 -3.16609745393e-008 +5.32697503284e-009
                  -1.96813358223e-001 -1.60068283152e+000 +2.32372306883e-002 +5.88623813489e-003 +2.15166128153e-001 +1.60997440103e+000 -1.32865808382e-002 -1.02471161549e-001
5.75439937337e+006 -8.95130117499e-001 +7.58708102953e-002 -3.70690966961e-008 +7.59045737451e-009 -1.63704635688e-006 -2.23350281923e-006 -1.26003382430e-006 +2.37664085988e-007
                  +3.17491527960e-001 +1.71780737555e+000 -1.35480397142e-002 -9.66658322974e-002 -3.37404052863e-001 -1.72697108781e+000 +2.32963223748e-002 +5.56941297489e-003
                  -1.64515563348e-006 -2.23285625941e-006 -1.26788476958e-006 +2.48671941045e-007 -8.91922821025e-001 +8.94375580779e-002 -3.71322917222e-008 +8.20883036195e-009
                  -3.22262897313e-001 -1.71615722542e+000 +2.33595255395e-002 +5.58609734559e-003 +3.41974954442e-001 +1.72418587094e+000 -1.49849188328e-002 -9.37862357310e-002
6.30957344480e+006 -8.70076081061e-001 +1.36452236602e-001 -4.32801516944e-008 +1.12159073698e-008 -2.36359280731e-006 -2.61208855178e-006 -1.47009859541e-006 +3.74137075949e-007
                  +4.59272078669e-001 +1.82815975450e+000 -1.50556018567e-002 -8.84851511410e-002 -4.80533684624e-001 -1.83589763962e+000 +2.33985496969e-002 +5.31229043779e-003
                  -2.37299634030e-006 -2.61041369434e-006 -1.47790030203e-006 +3.87461550274e-007 -8.65866906086e-001 +1.48655615032e-001 -4.32979077698e-008 +1.19091764272e-008
                  -4.63824646633e-001 -1.82609274972e+000 +2.34620350989e-002 +5.32842999223e-003 +4.84789381565e-001 +1.83263001121e+000 -1.64021109294e-002 -8.58454540358e-002
6.91830970919e+006 -8.38978219984e-001 +1.92707159766e-001 -5.02229164959e-008 +1.58137090561e-008 -3.31487677747e-006 -2.97030836082e-006 -1.70185282635e-006 +5.48700581418e-007
                  +6.17002590598e-001 +1.93032897551e+000 -1.63132640536e-002 -8.10121699133e-002 -6.39466471683e-001 -1.93640072072e+000 +2.34842790164e-002 +5.09654098408e-003
                  -3.32562194963e-006 -2.96732608754e-006 -1.70928631828e-006 +5.64601264158e-007 -8.33932343934e-001 +2.03524842834e-001 -5.01819244862e-008 +1.65849229674e-008
                  -6.21286861558e-001 -1.92787330204e+000 +2.35480036932e-002 +5.11226283574e-003 +6.43348075553e-001 +1.93268491092e+000 -1.75842010969e-002 -7.85938400912e-002
7.58577575029e+006 -8.02324524994e-001 +2.44010169981e-001 -5.79084075796e-008 +2.15534477969e-008 -4.52949877588e-006 -3.26423837175e-006 -1.95419151012e-006 +7.68034083390e-007
                  +7.89901918156e-001 +2.02155576912e+000 -1.73621171684e-002 -7.41938660120e-002 -8.13363686244e-001 -2.02572723057e+000 +2.35562722174e-002 +4.92126566885e-003
                  -4.54159952190e-006 -3.25964346424e-006 -1.96085389730e-006 +7.86731636399e-007 -7.96606258739e-001 +2.53430662995e-001 -5.77932559914e-008 +2.24038238240e-008
                  -7.93872214096e-001 -2.01874571754e+000 +2.36202011193e-002 +4.93669563189e-003 +8.16816753382e-001 +2.02160525234e+000 -1.85699116695e-002 -7.19793325035e-002
8.31763771103e+006 -7.60731832601e-001 +2.89756957105e-001 -6.63309869233e-008 +2.86111823818e-008 -6.04110142253e-006 -3.43541390815e-006 -2.22503209741e-006 +1.03906023724e-006
                  +9.76547400703e-001 +2.09909473978e+000 -1.82366832680e-002 -6.79803090954e-002 -1.00074188307e+000 -2.10115534941e+000 +2.36168874634e-002 +4.78569362055e-003
                  -6.05453316953e-006 -3.42888232984e-006 -2.23043983456e-006 +1.06070964289e-006 -7.54506345273e-001 +2.97781399397e-001 -6.61243728247e-008 +2.95394307870e-008
                  -9.80163012232e-001 -2.09597044485e+000 +2.36809923510e-002 +4.80095657984e-003 +1.00371798143e+000 +2.09667669340e+000 -1.93917574095e-002 -6.59530281834e-002
9.12010839356e+006 -7.14956138122e-001 +3.29405957905e-001 -7.54689648919e-008 +3.71633119707e-008 -7.87350805244e-006 -3.41130640362e-006 -2.51127425709e-006 +1.36869581783e-006
                  +1.17484924218e+000 +2.16039942171e+000 -1.89659290928e-002 -6.23248143018e-002 -1.19945356645e+000 -2.16018167002e+000 +2.36681419792e-002 +4.68922399148e-003
                  -7.88820532977e-006 -3.40250438551e-006 -2.51487580748e-006 +1.39335896798e-006 -7.08389615279e-001 +3.36050940085e-001 -7.51521361580e-008 +3.81649927307e-008
                  -1.17807565162e+000 -2.15700625977e+000 +2.37324004579e-002 +4.70444439911e-003 +1.20191191490e+000 +2.15540253138e+000 -2.00770093535e-002 -6.04692947568e-002
1.00000000000e+007 -6.65886169609e-001 +3.62525464610e-001 -8.52878696664e-008 +4.73800161860e-008 -1.00358370368e-005 -3.10778352913e-006 -2.80885335109e-006 +1.76358390702e-006
                  +1.38208975260e+000 +2.20332237648e+000 -1.95741386596e-002 -5.71839894018e-002 -1.40673370058e+000 -2.20072078184e+000 +2.37117679518e-002 +4.63145802649e-003
                  -1.00516945545e-005 -3.09637739936e-006 -2.81005191253e-006 +1.79120537956e-006 -6.59144101902e-001 +3.67826069440e-001 -8.48412956614e-008 +4.84470282608e-008
                  -1.38489979162e+000 -2.19970997415e+000 +2.37761626234e-002 +4.64676051439e-003 +1.40864269830e+000 +2.19570277035e+000 -2.06485228256e-002 -5.54857881996e-002
1.09647819614e+007 -6.14518220086e-001 +3.88839004530e-001 -9.57466820772e-008 +5.94192489461e-008 -1.25185282221e-005 -2.43361217575e-006 -3.11289720375e-006 +2.22984610503e-006
                  +1.59503425279e+000 +2.22630377010e+000 -2.00816600908e-002 -5.25177064710e-002 -1.61931765125e+000 -2.22129029098e+000 +2.37492618801e-002 +4.61222410099e-003
                  -1.25354057242e-005 -2.41927750907e-006 -3.11108234499e-006 +2.26023634529e-006 -6.07761876939e-001 +3.92851192057e-001 -9.51509033065e-008 +6.05395521714e-008
                  -1.59740903928e+000 -2.22252463799e+000 +2.38137795999e-002 +4.62773420818e-003 +1.62065609657e+000 +2.21609865459e+000 -2.11254448294e-002 -5.09634036653e-002
1.20226443462e+007 -5.61913587481e-001 +4.08261101996e-001 -1.06806890727e-007 +7.34223689481e-008 -1.52912414179e-005 -1.29656627672e-006 -3.41797750050e-006 +2.77289762476e-006
                  +1.81010791634e+000 +2.22851908700e+000 -2.05055418850e-002 -4.82890215804e-002 -1.83362341382e+000 -2.22115212851e+000 +2.37819280128e-002 +4.63159804467e-003
                  -1.53089719463e-005 -1.27899485034e-006 -3.41256258104e-006 +2.80572715390e-006 -5.55295121006e-001 +4.11062645415e-001 -1.06043448402e-007 +7.45800178640e-008
                  -1.81203742602e+000 -2.22462695885e+000 +2.38465592504e-002 +4.64744306137e-003 +1.83438123033e+000 +2.21585360495e+000 -2.15238158539e-002 -4.68661809227e-002
1.31825673856e+007 -5.09143527442e-001 +4.20916580740e-001 -1.18443749913e-007 +8.95123497035e-008 -1.83033183752e-005 +3.89785540308e-007 -3.71842760345e-006 +3.39736248983e-006
                  +2.02361941563e+000 +2.20996053032e+000 -2.08600732245e-002 -4.44640603498e-002 -2.04597776012e+000 -2.20038561772e+000 +2.38109167194e-002 +4.68992059590e-003
                  -1.83217189230e-005 +4.10882239273e-007 -3.70888828374e-006 +3.43216915819e-006 -5.02800475895e-001 +4.22606032052e-001 -1.17496062466e-007 +9.06878708673e-008
                  -2.02510258457e+000 -2.20600854543e+000 +2.38756550299e-002 +4.70623052516e-003 +2.04615610442e+000 +2.19504610003e+000 -2.18570803360e-002 -4.31611806140e-002
1.44543977075e+007 -4.57229372888e-001 +4.27139337968e-001 -1.30658764753e-007 +1.07795132768e-007 -2.14869735988e-005 +2.69983006274e-006 -4.00868340878e-006 +4.10711077013e-006
                  +2.23200185342e+000 +2.17143717066e+000 -2.11572418736e-002 -4.10118827358e-002 -2.25285613255e+000 -2.15987883590e+000 +2.38372587597e-002 +4.78781341261e-003
                  -2.15058566621e-005 +2.72472146337e-006 -3.99459194243e-006 +4.14331978639e-006 -4.51279491831e-001 +4.27832909596e-001 -1.29512812055e-007 +1.08966215850e-007
                  -2.23304617193e+000 -2.16747607210e+000 +2.39021003770e-002 +4.80472204498e-003 +2.25246684309e+000 +2.15456107755e+000 -2.21365188892e-002 -3.98183434383e-002
1.58489319246e+007 -4.07086540995e-001 +4.27450376603e-001 -1.43492307134e-007 +1.28364160133e-007 -2.47627490448e-005 +5.69137904318e-006 -4.28359801476e-006 +4.90541843765e-006
                  +2.43203747461e+000 +2.11449358173e+000 -2.14071219511e-002 -3.79043369222e-002 -2.45110294164e+000 -2.10123963913e+000 +2.38618964663e-002 +4.92619469851e-003
                  -2.47819334606e-005 +5.72032021596e-006 -4.26464861847e-006 +4.94237255017e-006 -4.01623829898e-001 +4.27277060194e-001 -1.42137004200e-007 +1.29506574617e-007
                  -2.43265810619e+000 -2.11057010445e+000 +2.39268400293e-002 +4.94384078878e-003 +2.45016738196e+000 +2.09600122151e+000 -2.23716141266e-002 -3.68103411510e-002
1.73780082875e+007 -3.59480183452e-001 +4.22518748081e-001 -1.57035431665e-007 +1.51307596047e-007 -2.80462471812e-005 +9.40366582048e-006 -4.53868639887e-006 +5.79522899295e-006
                  +2.62103642451e+000 +2.04126143236e+000 -2.16182025107e-002 -3.51159094637e-002 -2.63810346694e+000 -2.02664214087e+000 +2.38857128375e-002 +5.10629519757e-003
                  -2.80655668766e-005 +9.43690558493e-006 -4.51470867357e-006 +5.83222445191e-006 -3.54572714315e-001 +4.21614333355e-001 -1.55462623860e-007 +1.52396205595e-007
                  -2.62125494857e+000 -2.03741702488e+000 +2.39507592579e-002 +5.12482372852e-003 +2.63665089826e+000 +2.02153388256e+000 -2.25703605534e-002 -3.41124257837e-002
1.90546071796e+007 -3.14997580470e-001 +4.13111858244e-001 -1.71440365296e-007 +1.76717375456e-007 -3.12549211905e-005 +1.38580921872e-005 -4.77027112708e-006 +6.77948051512e-006
                  +2.79695005223e+000 +1.95426916195e+000 -2.17976665347e-002 -3.26235767692e-002 -2.81188926321e+000 -1.93863443589e+000 +2.39095594830e-002 +5.32967507622e-003
                  -3.12742309823e-005 +1.38958834533e-005 -4.74123074773e-006 +6.81580376165e-006 -3.10687357698e-001 +4.11612675926e-001 -1.69644436787e-007 +1.77727111517e-007
                  -2.79679297237e+000 -1.95053913072e+000 +2.39747119557e-002 +5.34923859306e-003 +2.80995493265e+000 +1.93369935070e+000 -2.27395277049e-002 -3.17022815988e-002
2.08929613085e+007 -2.74038906973e-001 +4.00042668706e-001 -1.86929666133e-007 +2.04699087223e-007 -3.43138062078e-005 +1.90613577770e-005 -4.97551945931e-006 +7.86145588919e-006
                  +2.95841260682e+000 +1.85623893471e+000 -2.19516286783e-002 -3.04066614633e-002 -2.97117236603e+000 -1.83993667131e+000 +2.39342842976e-002 +5.59824205297e-003
                  -3.43329844047e-005 +1.91039688336e-005 -4.94150751026e-006 +7.89641637580e-006 -2.70343608241e-001 +3.98079841012e-001 -1.84906807390e-007 +2.05605762334e-007
                  -2.95790977994e+000 -1.85265203711e+000 +2.39995484497e-002 +5.61900205590e-003 +2.96879551006e+000 +1.83520950043e+000 -2.28848844848e-002 -2.95598828838e-002
2.29086765277e+007 -2.36824731289e-001 +3.84120657516e-001 -2.03804545143e-007 +2.35381819414e-007 -3.71594440592e-005 +2.50101901709e-005 -5.15238037149e-006 +9.04511781950e-006
                  +3.10471772736e+000 +1.74989743955e+000 -2.20853389980e-002 -2.84466960310e-002 -3.11531581205e+000 -1.73325532857e+000 +2.39607596809e-002 +5.91427104221e-003
                  -3.71783921413e-005 +2.50579158044e-005 -5.11359424582e-006 +9.07807367512e-006 -2.33740894822e-001 +3.81815441731e-001 -2.01551759975e-007 +2.36162699427e-007
                  -3.10390085493e+000 -1.74647589334e+000 +2.40261438519e-002 +5.93639943054e-003 +3.11253775376e+000 +1.72876259933e+000 -2.30113915751e-002 -2.76673596619e-002
2.51188643151e+007 -2.03416314854e-001 +3.66111492192e-001 -2.22453212830e-007 +2.68927391352e-007 -3.97417286562e-005 +3.16967454505e-005 -5.29944266699e-006 +1.03354010161e-005
                  +3.23574492526e+000 +1.63781971591e+000 -2.22033589173e-002 -2.67272953297e-002 -3.24425625490e+000 -1.62113188474e+000 +2.39899121114e-002 +6.28042553223e-003
                  -3.97603686690e-005 +3.17499171115e-005 -5.25616212387e-006 +1.03657759446e-005 -2.00923398671e-001 +3.63572029264e-001 -2.19967157031e-007 +2.69561493021e-007
                  -3.23464621504e+000 -1.63457955158e+000 +2.40554277577e-002 +6.30410610134e-003 +3.24111872912e+000 +1.61689239760e+000 -2.31233678693e-002 -2.60088726561e-002
2.75422870334e+007 -1.73743777802e-001 +3.46707962696e-001 -2.43360310536e-007 +3.05538770357e-007 -4.20238227903e-005 +3.91138453760e-005 -5.41574075560e-006 +1.17384474633e-005
                  +3.35185510418e+000 +1.52231591082e+000 -2.23097149014e-002 -2.52340389549e-002 -3.35839777264e+000 -1.50583474786e+000 +2.40227539078e-002 +6.69978089539e-003
                  -4.20420932072e-005 +3.91728400161e-005 -5.36830259376e-006 +1.17657388344e-005 -1.71808517446e-001 +3.44027475961e-001 -2.40636042038e-007 +3.06006890586e-007
                  -3.35050616895e+000 -1.51926757150e+000 +2.40884161293e-002 +6.72521089462e-003 +3.35494155899e+000 +1.50186036819e+000 -2.32246361138e-002 -2.45704983107e-002
3.01995172040e+007 -1.47637352258e-001 +3.26512499375e-001 -2.67118532628e-007 +3.45467828225e-007 -4.39805716681e-005 +4.72594658512e-005 -5.50053354626e-006 +1.32617831503e-005
                  +3.45377355078e+000 +1.40536230742e+000 -2.24080346574e-002 -2.39543640108e-002 -3.45849496108e+000 -1.38929501845e+000 +2.40604180997e-002 +7.17584980911e-003
                  -4.39984224395e-005 +4.73247133915e-005 -5.44930765936e-006 +1.32855623980e-005 -1.46217945013e-001 +3.23768785407e-001 -2.64148229849e-007 +3.45752339454e-007
                  -3.45220457016e+000 -1.40251139865e+000 +2.41262462915e-002 +7.20324157376e-003 +3.45475885416e+000 +1.38559164837e+000 -2.33186523381e-002 -2.33401242868e-002
3.31131121483e+007 -1.24857872867e-001 +3.06029980097e-001 -2.94443498361e-007 +3.89022879078e-007 -4.55959418017e-005 +5.61401826200e-005 -5.55307640750e-006 +1.49144437235e-005
                  +3.54247525644e+000 +1.28857171752e+000 -2.25016701939e-002 -2.28774684990e-002 -3.54553963918e+000 -1.27308069509e+000 +2.41041974515e-002 +7.71260993485e-003
                  -4.56133291451e-005 +5.62121722662e-005 -5.49844505090e-006 +1.49343507974e-005 -1.23907665849e-001 +3.03285916321e-001 -2.91215171549e-007 +3.89107338193e-007
                  -3.54071439580e+000 -1.28591981984e+000 +2.41702160922e-002 +7.74219260836e-003 +3.54155974430e+000 +1.26964931623e+000 -2.34086231913e-002 -2.23073555539e-002
3.63078054770e+007 -1.05123906757e-001 +2.85668637501e-001 -3.26192854605e-007 +4.36576643416e-007 -4.68599796858e-005 +6.57735311414e-005 -5.57239878367e-006 +1.67070614936e-005
                  +3.61908260869e+000 +1.17319488199e+000 -2.25938116928e-002 -2.19942252751e-002 -3.62066064649e+000 -1.15840079193e+000 +2.41555888520e-002 +8.31453394944e-003
                  -4.68768609716e-005 +6.58528168849e-005 -5.51473996375e-006 +1.67227952741e-005 -1.04594418121e-001 +2.82973393600e-001 -3.22689046207e-007 +4.36445261323e-007
                  -3.61715566663e+000 -1.17074035797e+000 +2.42218284495e-002 +8.34655531233e-003 +3.61646996311e+000 +1.15523849387e+000 -2.34976149611e-002 -2.14634309604e-002
3.98107170553e+007 -8.81341473226e-002 +2.65746621330e-001 -3.63390534742e-007 +4.88575421858e-007 -4.77656705519e-005 +7.61894074898e-005 -5.55709279415e-006 +1.86519276054e-005
                  +3.68478078574e+000 +1.06014352533e+000 -2.26875959034e-002 -2.12971062921e-002 -3.68504159581e+000 -1.04613005954e+000 +2.42163444870e-002 +8.98662194231e-003
                  -4.77819994645e-005 +7.62766131743e-005 -5.49676795121e-006 +1.86632340208e-005 -8.79773753755e-002 +2.63137281743e-001 -3.59586980659e-007 +4.88212431101e-007
                  -3.68271103073e+000 -1.05788227324e+000 +2.42828427106e-002 +9.02135036372e-003 +3.68066983677e+000 +1.04323099557e+000 -2.35886578239e-002 -2.08011499593e-002