! 4-Port simulation of a differential amplifier
! Port 1: positive input
! Port 2: positive output
! Port 3: negative input
! Port 4: negative output
# HZ S RI R 50
1.00000000000e+006 +2.47100958062e-002 -1.55242059920e-001 -4.99281375581e-007 +1.61367241333e-006 -4.86092033883e-006 +1.51029844005e-005 -4.66292104132e-011 -6.42053634821e-012
                  -2.09309156799e+000 -6.47604130549e-001 +1.18099621386e-001 -1.26343160229e-001 +3.26949374532e-001 +1.01651940618e-001 -4.22740773098e-006 +1.47971720684e-005
                  -4.84551734870e-006 +1.49974636640e-005 -4.71906873934e-011 -6.78355126141e-012 +2.51988771089e-002 -1.56730214730e-001 -3.99635125886e-007 +1.29079899426e-006
                  +3.31186347699e-001 +1.01896941638e-001 -4.24522926158e-006 +1.49257008270e-005 -2.08805274994e+000 -6.46454675920e-001 +1.17749867405e-001 -1.25140925295e-001
3.43300000000e+007 +2.63727626621e-005 -5.32836533973e-003 -4.46025632351e-007 +5.93146966981e-005 -4.23396113168e-006 +5.58113291364e-004 -5.46355443276e-008 -1.02360180391e-010
                  -2.24109957138e+000 -1.64305058453e-002 +1.00020059829e-001 -4.45781257743e-003 +3.50321189887e-001 +3.49433774217e-004 -3.62223739160e-006 +5.38597086321e-004
                  -4.23804121192e-006 +5.54509925117e-004 -5.54135426888e-008 -1.12991065829e-010 +2.66946479909e-005 -5.33569784042e-003 -3.59202141816e-007 +4.74517509611e-005
                  +3.54377740926e-001 +3.51458997053e-004 -3.61644388466e-006 +5.42993916584e-004 -2.23594505661e+000 -1.65142307614e-002 +1.00019572648e-001 -4.38249926292e-003
6.76600000000e+007 +7.74974457490e-006 -3.71700626057e-003 -2.25525237251e-007 +1.16905987786e-004 -1.72251764810e-006 +1.10001351232e-003 -2.12219552600e-007 +3.92266183187e-010
                  -2.24118087891e+000 -3.49226213209e-003 +1.00005957388e-001 -3.29028697207e-003 +3.50321477372e-001 -3.85121410452e-003 -1.39498633418e-006 +1.06153873738e-003
                  -1.77999190349e-006 +1.09291200620e-003 -2.15241798434e-007 +3.85225242465e-010 +7.92434024424e-006 -3.66293112009e-003 -1.88916072785e-007 +9.35247808079e-005
                  +3.54377960491e-001 -3.85408082549e-003 -1.32372607884e-006 +1.07020401462e-003 -2.23602703022e+000 -3.70566079069e-003 +1.00005916480e-001 -3.19626194664e-003
1.00990000000e+008 +2.95078910676e-007 -3.61297161257e-003 +1.39108041466e-007 +1.74494819431e-004 +2.43055609941e-006 +1.64188848893e-003 -4.72793331864e-007 +2.05153774622e-009
                  -2.24117356899e+000 +3.02737323885e-003 +9.99996528315e-002 -3.34370531684e-003 +3.50299554233e-001 -7.04313188329e-003 +2.28808668807e-006 +1.58446009307e-003
                  +2.28479305718e-006 +1.63128927444e-003 -4.79526491237e-007 +2.07536440009e-009 +6.99993934541e-007 -3.51271410854e-003 +9.26799418870e-008 +1.39595834904e-004
                  +3.54356114537e-001 -7.04936651653e-003 +2.46759837132e-006 +1.59739328611e-003 -2.23602091634e+000 +2.69505707897e-003 +1.00000014616e-001 -3.21888245245e-003
1.34320000000e+008 -6.93069121407e-006 -3.89417982510e-003 +6.47853791236e-007 +2.32081369722e-004 +8.22505446076e-006 +2.18373988418e-003 -8.36347851971e-007 +5.44910782478e-009
                  -2.24114408518e+000 +7.90629904089e-003 +9.99931712491e-002 -3.70916998175e-003 +3.50265919554e-001 -9.97710359777e-003 +7.42682969386e-006 +2.10736195200e-003
                  +7.95611120158e-006 +2.16964361615e-003 -8.48258355287e-007 +5.54451492536e-009 -6.13996373268e-006 -3.75163306180e-003 +4.85569277155e-007 +1.85665053504e-004
                  +3.54322613328e-001 -9.98631751355e-003 +7.75737346379e-006 +2.12456225894e-003 -2.23599311412e+000 +7.45782033104e-003 +9.99940492705e-002 -3.55046160747e-003
1.67650000000e+008 -1.53204596170e-005 -4.33084553971e-003 +1.30069664935e-006 +2.89665151876e-004 +1.56608287117e-005 +2.72556261545e-003 -1.30287051430e-006 +1.11585469353e-008
                  -2.24110088930e+000 +1.21229268821e-002 +9.99854972360e-002 -4.20055345729e-003 +3.50221911169e-001 -1.28068432961e-002 +1.40211244902e-005 +2.63023994719e-003
                  +1.52338188404e-005 +2.70797016685e-003 -1.32142446317e-006 +1.13796804633e-008 -1.40167217462e-005 -4.14758226911e-003 +9.89739263327e-007 +2.31732044098e-004
                  +3.54278783381e-001 -1.28188803484e-002 +1.45454748363e-005 +2.65170629978e-003 -2.23595207970e+000 +1.15594040530e-002 +9.99870250344e-002 -4.00671521275e-003
2.00980000000e+008 -2.52223113672e-005 -4.84560593845e-003 +2.09761826414e-006 +3.47245565634e-004 +2.47377023526e-005 +3.26735044878e-003 -1.87234515260e-006 +1.97533183033e-008
                  -2.24104609787e+000 +1.60066146229e-002 +9.99763770606e-002 -4.75519119586e-003 +3.50167864539e-001 -1.55840694624e-002 +2.20708291518e-005 +3.15308883003e-003
                  +2.41177459961e-005 +3.24626290974e-003 -1.89900822677e-006 +2.01677544922e-008 -2.32854510243e-005 -4.62241810298e-003 +1.60517473526e-006 +2.77796323252e-004
                  +3.54224957323e-001 -1.55988519100e-002 +2.28317525895e-005 +3.17881989449e-003 -2.23589992812e+000 +1.53286167345e-002 +9.99786931620e-002 -4.52559970974e-003
2.34310000000e+008 -3.67562378451e-005 -5.40511271149e-003 +3.03859652395e-006 +4.04821978088e-004 +3.54554629812e-005 +3.80909681875e-003 -2.54475203411e-006 +3.18067516628e-008
                  -2.24098044256e+000 +1.96992933121e-002 +9.99657232769e-002 -5.34607051963e-003 +3.50103896533e-001 -1.83310473894e-002 +3.15757725039e-005 +3.67590309813e-003
                  +3.46076882407e-005 +3.78451549632e-003 -2.58098939833e-006 +3.24954933940e-008 -3.40686017063e-005 -5.14245602295e-003 +2.33185741340e-006 +3.23857381375e-004
                  +3.54161251040e-001 -1.83485314159e-002 +3.26160258031e-005 +3.70589727543e-003 -2.23583739048e+000 +1.89071539761e-002 +9.99689679136e-002 -5.08037043723e-003
2.67640000000e+008 -4.99724356452e-005 -5.99262586855e-003 +4.12360540791e-006 +4.62393744124e-004 +4.78138607283e-005 +4.35079503601e-003 -3.32006786076e-006 +4.78920168363e-008
                  -2.24090423162e+000 +2.32721705425e-002 +9.99534993246e-002 -5.95963151962e-003 +3.50030057355e-001 -2.10589285364e-002 +4.25357530611e-005 +4.19867715424e-003
                  +4.67034051238e-005 +4.32272145395e-003 -3.36734407182e-006 +4.89494893138e-008 -4.64174161061e-005 -5.69078756650e-003 +3.16976578500e-006 +3.69914699102e-004
                  +3.54087714314e-001 -2.10790874685e-002 +4.38980814819e-005 +4.23293258025e-003 -2.23576477472e+000 +2.23661063768e-002 +9.99578134294e-002 -5.65760231249e-003
3.00970000000e+008 -6.48947939606e-005 -6.59881757562e-003 +5.35261494693e-006 +5.19960213316e-004 +6.18126078393e-005 +4.89243835706e-003 -4.19826577076e-006 +6.85820972851e-008
                  -2.24081761404e+000 +2.67648905427e-002 +9.99396878266e-002 -6.58831814328e-003 +3.49946372267e-001 -2.37739043464e-002 +5.49505387420e-005 +4.72140535971e-003
                  +6.04046197516e-005 +4.86087425576e-003 -4.25804468443e-006 +7.01161429956e-008 -6.03562990615e-005 -6.25799129737e-003 +4.11887507247e-006 +4.15967752816e-004
                  +3.54004372202e-001 -2.37967211648e-002 +5.66776742722e-005 +4.75991990533e-003 -2.23568222965e+000 +2.57450540365e-002 +9.99452126516e-002 -6.24981466696e-003
3.34300000000e+008 -8.15357485924e-005 -7.21807717188e-003 +6.72559121225e-006 +5.77520732698e-004 +7.74513785430e-005 +5.43402001247e-003 -5.17931534031e-006 +9.44497636668e-008
                  -2.24072066976e+000 +3.02012686087e-002 +9.99242797603e-002 -7.22758525249e-003 +3.49852855852e-001 -2.64796788365e-002 +6.88198667901e-005 +5.24408205606e-003
                  +7.57110186549e-005 +5.39896734879e-003 -5.25306001844e-006 +9.65816366189e-008 -7.58979735172e-005 -6.83840049830e-003 +5.17915722374e-006 +4.62016016878e-004
                  +3.53911239169e-001 -2.65051424206e-002 +7.09545263856e-005 +5.28685332738e-003 -2.23558983502e+000 +2.90677746317e-002 +9.99311567096e-002 -6.85250793631e-003
3.67630000000e+008 -9.99021856514e-005 -7.84682614484e-003 +8.24249631132e-006 +6.35074648058e-004 +9.47298090171e-005 +5.97553321989e-003 -6.26318258558e-006 +1.26067547395e-007
                  -2.24061344553e+000 +3.35964664894e-002 +9.99072701540e-002 -7.87453375094e-003 +3.49749517677e-001 -2.91785961764e-002 +8.41434437409e-005 +5.76670157500e-003
                  +9.26222517523e-005 +5.93699416708e-003 -6.35235520317e-006 +1.28931906646e-007 -9.30495041130e-005 -7.42840112793e-003 +6.35058090978e-006 +5.08058964657e-004
                  +3.53808324709e-001 -2.92066992506e-002 +8.67283275660e-005 +5.81372691339e-003 -2.23548763742e+000 +3.23494067856e-002 +9.99156407004e-002 -7.46281230056e-003
4.00960000000e+008 -1.19998067206e-004 -8.48267351604e-003 +9.90328838767e-006 +6.92621304592e-004 +1.13647497375e-004 +6.51697119069e-003 -7.44982996494e-006 +1.64007714219e-007
                  -2.24049597087e+000 +3.69605890410e-002 +9.98886561724e-002 -8.52722644583e-003 +3.49636364811e-001 -3.18722058865e-002 +1.00920945424e-004 +6.28925824351e-003
                  +1.11137932337e-004 +6.47494813829e-003 -7.55589171732e-006 +1.67752616684e-007 -1.11814976121e-004 -8.02557867315e-003 +7.63311152412e-006 +5.54096069058e-004
                  +3.53695635841e-001 -3.19029438207e-002 +1.03998735094e-004 +6.34053472579e-003 -2.23537566619e+000 +3.56000406961e-002 +9.98986618128e-002 -8.07881031962e-003
4.34290000000e+008 -1.41825705367e-004 -9.12396015097e-003 +1.17079216227e-005 +7.50160047273e-004 +1.34204003685e-004 +7.05832713371e-003 -8.73921638138e-006 +2.08842237833e-007
                  -2.24036826577e+000 +4.03006247139e-002 +9.98684361884e-002 -9.18431893858e-003 +3.49513403050e-001 -3.45615677777e-002 +1.19152016976e-004 +6.81174638669e-003
                  +1.31257637096e-004 +7.01282268737e-003 -8.86362739147e-006 +2.13629130385e-007 -1.32196795410e-004 -8.62825785708e-003 +9.02671118468e-006 +6.00126802822e-004
                  +3.53573178320e-001 -3.45949378478e-002 +1.22765373800e-004 +6.86727082526e-003 -2.23525394116e+000 +3.88266553740e-002 +9.98802184165e-002 -8.69917147801e-003
4.67620000000e+008 -1.65386425186e-004 -9.76949794644e-003 +1.36563462379e-005 +8.07690221078e-004 +1.56398849990e-004 +7.59959425746e-003 -1.01312971852e-005 +2.61142773517e-007
                  -2.24023034476e+000 +4.36215561825e-002 +9.98466092993e-002 -9.84484836631e-003 +3.49380637552e-001 -3.72474264832e-002 +1.38836272857e-004 +7.33416032947e-003
                  +1.52980906125e-004 +7.55061123885e-003 -1.02755164108e-005 +2.67146484363e-007 -1.54196364798e-004 -9.23523919202e-003 +1.05313387359e-005 +6.46150638702e-004
                  +3.53440957272e-001 -3.72834273951e-002 +1.43027836083e-004 +7.39392927251e-003 -2.23512247667e+000 +4.20342274135e-002 +9.98603095884e-002 -9.32294301883e-003
5.00950000000e+008 -1.90680929865e-004 -1.04184131354e-002 +1.57485084984e-005 +8.65211171128e-004 +1.80231520330e-004 +8.14076577160e-003 -1.16260241769e-005 +3.21480631784e-007
                  -2.24008221909e+000 +4.69270276126e-002 +9.98231750609e-002 -1.05081064787e-002 +3.49238073187e-001 -3.99303163176e-002 +1.59973296867e-004 +7.85649439777e-003
                  +1.76307242952e-004 +8.08830721825e-003 -1.17915093180e-005 +3.28889361145e-007 -1.77814456663e-004 -9.84564070087e-003 +1.21469497506e-005 +6.92167049583e-004
                  +3.53298977537e-001 -3.99689478895e-002 +1.64785681929e-004 +7.92050412937e-003 -2.23498128376e+000 +4.52263971389e-002 +9.98389348520e-002 -9.94942427574e-003
5.34280000000e+008 -2.17709511795e-004 -1.10700482417e-002 +1.79843507148e-005 +9.22722242795e-004 +2.05701460769e-004 +8.68183488793e-003 -1.32233456103e-005 +3.90426752072e-007
                  -2.23992389804e+000 +5.02197621705e-002 +9.97981333333e-002 -1.11735602214e-002 +3.49085714739e-001 -4.26106268886e-002 +1.82562642170e-004 +8.37874291924e-003
                  +2.01236114565e-004 +8.62590405307e-003 -1.34115530168e-005 +3.99442062130e-007 -2.03051428280e-004 -1.04587988820e-002 +1.38734965330e-005 +7.38175508566e-004
                  +3.53147243869e-001 -4.26518898323e-002 +1.88038438936e-004 +8.44698945963e-003 -2.23483037152e+000 +4.84058854180e-002 +9.98160940259e-002 -1.05780880443e-002
5.67610000000e+008 -2.46472179592e-004 -1.17238985792e-002 +2.03638112475e-005 +9.80222781779e-004 +2.32808079436e-004 +9.22279482118e-003 -1.49232061960e-005 +4.68551676458e-007
                  -2.23975538968e+000 +5.35018324399e-002 +9.97714841888e-002 -1.18408002999e-002 +3.48923567030e-001 -4.52886455931e-002 +2.06603831319e-004 +8.90090022387e-003
                  +2.27766951448e-004 +9.16339517357e-003 -1.51355907749e-005 +4.79388480616e-007 -2.29907351428e-004 -1.10742045671e-002 +1.57109281218e-005 +7.84175489029e-004
                  +3.52985761063e-001 -4.53325413594e-002 +2.12785602338e-004 +8.97337932959e-003 -2.23466974778e+000 +5.15747636226e-002 +9.97917871338e-002 -1.12085296531e-002
6.00940000000e+008 -2.76968737261e-004 -1.23795698821e-002 +2.28868245113e-005 +1.03771213416e-003 +2.61550746552e-004 +9.76363878954e-003 -1.67255471048e-005 +5.56425523452e-007
                  -2.23957670136e+000 +5.67748408489e-002 +9.97432278537e-002 -1.25095068607e-002 +3.48751634992e-001 -4.79645859719e-002 +2.32096356294e-004 +9.42296064442e-003
                  +2.55899147607e-004 +9.70077401330e-003 -1.69635622281e-005 +5.69312074856e-007 -2.58382093141e-004 -1.16914601222e-002 +1.76591902935e-005 +8.30166464675e-004
                  +3.52814534023e-001 -4.80111166390e-002 +2.39026635052e-004 +9.49966780858e-003 -2.23449941965e+000 +5.47346337553e-002 +9.97660143472e-002 -1.18404329869e-002
6.34270000000e+008 -3.09198835061e-004 -1.30367492936e-002 +2.55533209782e-005 +1.09518964647e-003 +2.91928794468e-004 +1.03043600152e-002 -1.86303059716e-005 +6.54617961748e-007
                  -2.23938783998e+000 +6.00400432088e-002 +9.97133646714e-002 -1.31794259917e-002 +3.48569923716e-001 -5.06386071250e-002 +2.59039678515e-004 +9.94491851682e-003
                  +2.85632060608e-004 +1.02380340096e-002 -1.88954033842e-005 +6.69795841122e-007 -2.88475367620e-004 -1.23102501449e-002 +1.97182255659e-005 +8.76147909577e-004
                  +3.52633567811e-001 -5.06877753164e-002 +2.66760967685e-004 +1.00258489693e-002 -2.23431939380e+000 +5.78867517813e-002 +9.97387759497e-002 -1.24735472185e-002
6.67600000000e+008 -3.43162003092e-004 -1.36951850468e-002 +2.83632271837e-005 +1.15265466570e-003 +3.23941517710e-004 +1.08449517247e-002 -2.06374168995e-005 +7.63698184075e-007
                  -2.23918881226e+000 +6.32984352523e-002 +9.96818950780e-002 -1.38503532635e-002 +3.48378438489e-001 -5.33108273124e-002 +2.87433228882e-004 +1.04667681805e-002
                  +3.16965011620e-004 +1.07751686041e-002 -2.09310466268e-005 +7.81422286845e-007 -3.20186770480e-004 -1.29303209386e-002 +2.18879732011e-005 +9.22119298213e-004
                  +3.52442867685e-001 -5.33626361344e-002 +2.95987998582e-004 +1.05519168882e-002 -2.23412967666e+000 +6.10321140175e-002 +9.97100723122e-002 -1.31076705119e-002
7.00930000000e+008 -3.78857673959e-004 -1.43546719399e-002 +3.13164657285e-005 +1.21010653939e-003 +3.57588173021e-004 +1.13854071494e-002 -2.27468104641e-005 +8.84234881082e-007
                  -2.23897962480e+000 +6.65508144743e-002 +9.96488195856e-002 -1.45221219653e-002 +3.48177184809e-001 -5.59813336740e-002 +3.17276407808e-004 +1.09885039787e-002
                  +3.49897285454e-004 +1.13121712427e-002 -2.30704207202e-005 +9.04773403793e-007 -3.53515801920e-004 -1.35514658434e-002 +2.41683692114e-005 +9.68080105497e-004
                  +3.52242439111e-001 -5.60357866686e-002 +3.26707093857e-004 +1.10778656457e-002 -2.23393027457e+000 +6.41715188798e-002 +9.96799038777e-002 -1.37426383772e-002
7.34260000000e+008 -4.16285198479e-004 -1.50150407712e-002 +3.44129552877e-005 +1.26754461561e-003 +3.92867979396e-004 +1.19257195258e-002 -2.49584137179e-005 +1.01679621526e-006
                  -2.23876028426e+000 +6.97978251409e-002 +9.96141387710e-002 -1.51945945458e-002 +3.47966168402e-001 -5.86501893033e-002 +3.48568585257e-004 +1.15101202586e-002
                  +3.84428130597e-004 +1.18490353766e-002 -2.53134508134e-005 +1.04043064126e-006 -3.88461882649e-004 -1.41735145600e-002 +2.65593463610e-005 +1.01402980681e-003
                  +3.52032287785e-001 -5.87072904121e-002 +3.58917587437e-004 +1.16036893267e-002 -2.23372119387e+000 +6.73056118033e-002 +9.96482711492e-002 -1.43783151943e-002
7.67590000000e+008 -4.55443856675e-004 -1.56761505228e-002 +3.76526106107e-005 +1.32496824303e-003 +4.29780118140e-004 +1.24658820958e-002 -2.72721501949e-005 +1.16194979489e-006
                  -2.23853079733e+000 +7.30399915631e-002 +9.95778532675e-002 -1.58676562835e-002 +3.47745395233e-001 -6.13174384788e-002 +3.81309100772e-004 +1.20316113719e-002
                  +4.20556759266e-004 +1.23857544620e-002 -2.76600584458e-005 +1.18897487936e-006 -4.25024365198e-004 -1.47963252592e-002 +2.90608341722e-005 +1.05996787804e-003
                  +3.51812419640e-001 -6.13771920138e-002 +3.92618781089e-004 +1.21293820205e-002 -2.23350244097e+000 +7.04349184708e-002 +9.96151746823e-002 -1.50145879461e-002
8.00920000000e+008 -4.96332865723e-004 -1.63378824996e-002 +4.10353425328e-005 +1.38237677097e-003 +4.68323732924e-004 +1.30058881070e-002 -2.96879399160e-005 +1.32026264809e-006
                  -2.23829117086e+000 +7.62777430717e-002 +9.95399637594e-002 -1.65412105382e-002 +3.47514871514e-001 -6.39831105897e-002 +4.15497263526e-004 +1.25529716747e-002
                  +4.58282347467e-004 +1.29223219606e-002 -3.01101615514e-005 +1.35098640234e-006 -4.63202541952e-004 -1.54197786582e-002 +3.16727589293e-005 +1.10589379559e-003
                  +3.51582840851e-001 -6.40455212106e-002 +4.27809944476e-004 +1.26549378216e-002 -2.23327402240e+000 +7.35598697384e-002 +9.95806150795e-002 -1.56513615169e-002
8.34250000000e+008 -5.38951385627e-004 -1.70001358689e-002 +4.45610579738e-005 +1.43976954937e-003 +5.08497929802e-004 +1.35457308132e-002 -3.22056993938e-005 +1.49230119682e-006
                  -2.23804141187e+000 +7.95114329925e-002 +9.95004709776e-002 -1.72151751384e-002 +3.47274603705e-001 -6.66472231201e-002 +4.51132352337e-004 +1.30741955279e-002
                  +4.97604035006e-004 +1.34587313399e-002 -3.26636744647e-005 +1.52704487188e-006 -5.02995651002e-004 -1.60437735178e-002 +3.43950436834e-005 +1.15180703641e-003
                  +3.51343557845e-001 -6.67122958160e-002 +4.64490315176e-004 +1.31803508291e-002 -2.23303594483e+000 +7.66808205879e-002 +9.95445929858e-002 -1.62885551173e-002
8.67580000000e+008 -5.83298523613e-004 -1.76628242349e-002 +4.82296599536e-005 +1.49714592888e-003 +5.50301777331e-004 +1.40854034744e-002 -3.48253416381e-005 +1.67863123118e-006
                  -2.23778152754e+000 +8.27413532733e-002 +9.94593756963e-002 -1.78894796074e-002 +3.47024598523e-001 -6.93097839479e-002 +4.88213615774e-004 +1.35952772976e-002
                  +5.38520925602e-004 +1.39949760735e-002 -3.53205079262e-005 +1.71772930070e-006 -5.44402880507e-004 -1.66682231788e-002 +3.72276082585e-005 +1.19770707803e-003
                  +3.51094577301e-001 -6.93775240226e-002 +5.02659098784e-004 +1.37056151479e-002 -2.23278821509e+000 +7.97980647151e-002 +9.95071090860e-002 -1.69260995346e-002
9.00910000000e+008 -6.29373337131e-004 -1.83258729646e-002 +5.20410475857e-005 +1.55450526088e-003 +5.93734306532e-004 +1.46248993573e-002 -3.75467761616e-005 +1.87981788327e-006
                  -2.23751152526e+000 +8.59677458264e-002 +9.94166787312e-002 -1.85640629956e-002 +3.46764862939e-001 -7.19707931304e-002 +5.26740272094e-004 +1.41162113549e-002
                  +5.81032086857e-004 +1.45310496415e-002 -3.80805690880e-005 +1.92361802573e-006 -5.87423371903e-004 -1.72930528651e-002 +4.01703692536e-005 +1.24359339860e-003
                  +3.50835906153e-001 -7.20412061903e-002 +5.42315468862e-004 +1.42307248883e-002 -2.23253084023e+000 +8.29118458693e-002 +9.94681641024e-002 -1.75639349896e-002
9.34240000000e+008 -6.77174836444e-004 -1.89892170954e-002 +5.59951160955e-005 +1.61184689747e-003 +6.38794511036e-004 +1.51642117356e-002 -4.03699089857e-005 +2.09642560176e-006
                  -2.23723141266e+000 +8.91908114844e-002 +9.93723809371e-002 -1.92388721874e-002 +3.46495404185e-001 -7.46302443121e-002 +5.66711509400e-004 +1.46369920766e-002
                  +6.25136550391e-004 +1.50669455303e-002 -4.09437615199e-005 +2.14528868194e-006 -6.32056222408e-004 -1.79181975662e-002 +4.32232400523e-005 +1.28946547688e-003
                  +3.50567551593e-001 -7.47033362560e-002 +5.83458567089e-004 +1.47556741663e-002 -2.23226382748e+000 +8.60223667818e-002 +9.94277587929e-002 -1.82020094585e-002
9.67570000000e+008 -7.26701986420e-004 -1.96527996687e-002 +6.00917568212e-005 +1.66917019155e-003 +6.85481347119e-004 +1.57033338900e-002 -4.32946426465e-005 +2.32901812600e-006
                  -2.23694119759e+000 +9.24107170768e-002 +9.93264832072e-002 -1.99138605507e-002 +3.46216229752e-001 -7.72881258393e-002 +6.08126485613e-004 +1.51576138449e-002
                  +6.70833311875e-004 +1.56026572335e-002 -4.39099852157e-005 +2.38331817586e-006 -6.78300486940e-004 -1.85436003576e-002 +4.63861308263e-005 +1.33532279227e-003
                  +3.50289521072e-001 -7.73639028499e-002 +6.26087503247e-004 +1.52804571042e-002 -2.23198718430e+000 +8.91297962373e-002 +9.93858939495e-002 -1.88402773355e-002
1.00090000000e+009 -7.77953707995e-004 -2.03165703994e-002 +6.43308572211e-005 +1.72647449683e-003 +7.33793733739e-004 +1.62422591086e-002 -4.63208762013e-005 +2.57815846043e-006
                  -2.23664088813e+000 +9.56276011051e-002 +9.92789864714e-002 -2.05889868590e-002 +3.45927347393e-001 -7.99444216526e-002 +6.50984328565e-004 +1.56780710483e-002
                  +7.18121331072e-004 +1.61381782517e-002 -4.69791365996e-005 +2.63828265916e-006 -7.26155179529e-004 -1.91692110536e-002 +4.96589485415e-005 +1.38116482489e-003
                  +3.50001822300e-001 -8.00228901897e-002 +6.70201355308e-004 +1.58050678305e-002 -2.23170091837e+000 +9.22342747366e-002 +9.93425703978e-002 -1.94786983674e-002
1.03423000000e+009 -8.30928879315e-004 -2.09804846019e-002 +6.87123008813e-005 +1.78375916785e-003 +7.83730552612e-004 +1.67809806876e-002 -4.94485052351e-005 +2.84440884893e-006
                  -2.23633049261e+000 +9.88415783171e-002 +9.92298916959e-002 -2.12642144216e-002 +3.45628765121e-001 -8.25991120079e-002 +6.95284136006e-004 +1.61983580810e-002
                  +7.66999531898e-004 +1.66735020928e-002 -5.01511085329e-005 +2.91075750240e-006 -7.75619274496e-004 -1.97949851238e-002 +5.30415969621e-005 +1.42699105552e-003
                  +3.49704463246e-001 -8.26802788024e-002 +7.15799169453e-004 +1.63295004800e-002 -2.23140503761e+000 +9.53359190614e-002 +9.92977889957e-002 -2.01172367899e-002
1.06756000000e+009 -8.85626336680e-004 -2.16445023176e-002 +7.32359675235e-005 +1.84102356001e-003 +8.35290648302e-004 +1.73194919307e-002 -5.26774218671e-005 +3.12833074945e-006
                  -2.23601001960e+000 +1.02052743428e-001 +9.91791998823e-002 -2.19395103772e-002 +3.45320491211e-001 -8.52521740629e-002 +7.41024975710e-004 +1.67184693439e-002
                  +8.17466802522e-004 +1.72086222727e-002 -5.34257903210e-005 +3.20131726894e-006 -8.26691707442e-004 -2.04208828123e-002 +5.65339766613e-005 +1.47280096568e-003
                  +3.49397452140e-001 -8.53360461117e-002 +7.62879960172e-004 +1.68537491945e-002 -2.23109955016e+000 +9.84348259947e-002 +9.92515506328e-002 -2.07558606306e-002
1.10089000000e+009 -9.42044875269e-004 -2.23085876011e-002 +7.79017330130e-005 +1.89826702961e-003 +8.88472828275e-004 +1.78577861503e-002 -5.60075147578e-005 +3.43048480850e-006
                  -2.23567947795e+000 +1.05261174164e-001 +9.91269120670e-002 -2.26148451154e-002 +3.45002534200e-001 -8.79035823566e-002 +7.88205885492e-004 +1.72383992441e-002
                  +8.69521995412e-004 +1.77435323148e-002 -5.68030677206e-005 +3.51053568874e-006 -8.79371375958e-004 -2.10468684161e-002 +6.01359850250e-005 +1.51859403765e-003
                  +3.49080797473e-001 -8.79901669180e-002 +8.11442710292e-004 +1.73778081225e-002 -2.23078446440e+000 +1.01531075354e-001 +9.92038562301e-002 -2.13945411346e-002
1.13422000000e+009 -1.00018324976e-003 -2.29727079314e-002 +8.27094693662e-005 +1.95548893390e-003 +9.43275862958e-004 +1.83958566670e-002 -5.94386691166e-005 +3.75143083571e-006
                  -2.23533887674e+000 +1.08466933767e-001 +9.90730293210e-002 -2.32901918002e-002 +3.44674902888e-001 -9.05533092045e-002 +8.36825873271e-004 +1.77581421958e-002
                  +9.23163927384e-004 +1.82782257510e-002 -6.02828229469e-005 +3.83898563225e-006 -9.33657140205e-004 -2.16729096898e-002 +6.38475162568e-005 +1.56436975447e-003
                  +3.48754507997e-001 -9.06426137949e-002 +8.61486371043e-004 +1.79016714200e-002 -2.23045978897e+000 +1.04624732493e-001 +9.91547067395e-002 -2.20332522928e-002
1.16755000000e+009 -1.06004017482e-003 -2.36368337256e-002 +8.76590447578e-005 +2.01268863104e-003 +9.99698485839e-004 +1.89336968103e-002 -6.29707667082e-005 +4.09172777864e-006
                  -2.23498822531e+000 +1.11670073076e-001 +9.90175527494e-002 -2.39655259752e-002 +3.44337606334e-001 -9.32013250277e-002 +8.86883917135e-004 +1.82776926198e-002
                  +9.78391379712e-004 +1.88126961214e-002 -6.38649346814e-005 +4.18723908454e-006 -9.89547823496e-004 -2.22989773554e-002 +6.76684613888e-005 +1.61012759999e-003
                  +3.48418592722e-001 -9.32933574178e-002 +9.13009862122e-004 +1.84253332501e-002 -2.23012553273e+000 +1.07715850382e-001 +9.91041031432e-002 -2.26719704515e-002
1.20088000000e+009 -1.12161432553e-003 -2.43009379312e-002 +9.27503235294e-005 +2.06986548019e-003 +1.05773939352e-003 +1.94712999188e-002 -6.66036858615e-005 +4.45193369745e-006
                  -2.23462753326e+000 +1.14870632257e-001 +9.89604834910e-002 -2.46408252343e-002 +3.43990653862e-001 -9.58475986262e-002 +9.38378965378e-004 +1.87970449443e-002
                  +1.03520309817e-003 +1.93469369750e-002 -6.75492780796e-005 +4.55586711928e-006 -1.04704221268e-003 -2.29250446904e-002 +7.15987082851e-005 +1.65586705886e-003
                  +3.48073060920e-001 -9.59423668379e-002 +9.66012071736e-004 +1.89487877837e-002 -2.22978170480e+000 +1.10804471330e-001 +9.90520464537e-002 -2.33106739862e-002
1.23421000000e+009 -1.18490433778e-003 -2.49649956877e-002 +9.79831662006e-005 +2.12701884153e-003 +1.11739724580e-003 +2.00086593404e-002 -7.03373014763e-005 +4.83260573994e-006
                  -2.23425681046e+000 +1.18068642259e-001 +9.89018227180e-002 -2.53160689473e-002 +3.43634055053e-001 -9.84920974085e-002 +9.91309936618e-004 +1.93161936047e-002
                  +1.09359779310e-003 +1.98809418695e-002 -7.13357247791e-005 +4.94543987302e-006 -1.10613905847e-003 -2.35510871842e-002 +7.56381416525e-005 +1.70158761660e-003
                  +3.47717922122e-001 -9.85896097132e-002 +1.02049185673e-003 +1.94720291993e-002 -2.22942831453e+000 +1.13890628443e-001 +9.89985377132e-002 -2.39493430307e-002
1.26754000000e+009 -1.24990880854e-003 -2.56289840386e-002 +1.03357429474e-004 +2.18414807626e-003 +1.17867066577e-003 +2.05457684323e-002 -7.41714850321e-005 +5.23430011630e-006
                  -2.23387606703e+000 +1.21264126030e-001 +9.88415716360e-002 -2.59912380265e-002 +3.43267819753e-001 -1.01134787586e-001 +1.04567571980e-003 +1.98351330443e-002
                  +1.15357413955e-003 +2.04147043718e-002 -7.52241429079e-005 +5.35652651942e-006 -1.16683707586e-003 -2.41770822502e-002 +7.97866430464e-005 +1.74728875959e-003
                  +3.47353186118e-001 -1.01235052502e-001 +1.07644804259e-003 +1.99950516838e-002 -2.22906537154e+000 +1.16974346839e-001 +9.89435779938e-002 -2.45879592448e-002
1.30087000000e+009 -1.31662629622e-003 -2.62928816901e-002 +1.08872966250e-004 +2.24125254664e-003 +1.24155823989e-003 +2.10826205620e-002 -7.81061045959e-005 +5.65757207426e-006
                  -2.23348531335e+000 +1.24457099565e-001 +9.87797314835e-002 -2.66663147315e-002 +3.42891958065e-001 -1.03775634337e-001 +1.10147517429e-003 +2.03538577137e-002
                  +1.21513077727e-003 +2.09482180584e-002 -7.92143970929e-005 +5.78969524360e-006 -1.22913494426e-003 -2.48030089784e-002 +8.40440908762e-005 +1.79296997508e-003
                  +3.46978862958e-001 -1.03878660626e-001 +1.13387942353e-003 +2.05178494320e-002 -2.22869288568e+000 +1.20055644682e-001 +9.88871683968e-002 -2.52265056202e-002
1.33420000000e+009 -1.38505532077e-003 -2.69566688036e-002 +1.14529625629e-004 +2.29833161604e-003 +1.30605851805e-003 +2.16192091065e-002 -8.21410248312e-005 +6.10297587403e-006
                  -2.23308456006e+000 +1.27647572772e-001 +9.87163035320e-002 -2.73412825009e-002 +3.42506480354e-001 -1.06414601947e-001 +1.15870712992e-003 +2.08723620718e-002
                  +1.27826631085e-003 +2.14814765153e-002 -8.33063484685e-005 +6.24551321649e-006 -1.29303130786e-003 -2.54288479292e-002 +8.84103604160e-005 +1.83863075127e-003
                  +3.46594962950e-001 -1.06520398614e-001 +1.19278476255e-003 +2.10404166474e-002 -2.22831086705e+000 +1.23134534062e-001 +9.88293100530e-002 -2.58649663158e-002
1.36753000000e+009 -1.45519436401e-003 -2.76203268211e-002 +1.20327252926e-004 +2.35538464894e-003 +1.37217001369e-003 +2.21555274537e-002 -8.62761070061e-005 +6.57106476371e-006
                  -2.23267381809e+000 +1.30835550234e-001 +9.86512890855e-002 -2.80161258108e-002 +3.42111397243e-001 -1.09051653927e-001 +1.21737038708e-003 +2.13906405857e-002