! 1-Port simulation of a dipole, length 150 mm, wire diameter 1 mm, copper, gap 1 mm
# GHz S MA R 50
0.02                 0.999991563    -0.404291968
0.02998                        1    -0.606357297
0.03996                        1    -0.809172696
0.04994                        1     -1.01278278
0.05992                        1     -1.21723549
0.0699                         1      -1.4225822
0.07988                        1     -1.62887792
0.08986                        1     -1.83618137
0.09984                        1     -2.04455524
0.10982                        1     -2.25406627
0.1198                         1     -2.46478551
0.12978                        1     -2.67678846
0.13976                        1     -2.89015533
0.14974                        1     -3.10497122
0.15972                        1     -3.32132639
0.1697                         1     -3.53931648
0.17968                        1     -3.75904281
0.18966                        1     -3.98061267
0.19964                        1      -4.2041396
0.20962                        1     -4.42974376
0.2196                         1     -4.65755224
0.22958                        1     -4.88769951
0.23956              0.999882765     -5.12032776
0.24954              0.999679526      -5.3555874
0.25952              0.999459038     -5.59363749
0.2695               0.999220976     -5.83464632
0.27948              0.998964943     -6.07879191
0.28946              0.998690457     -6.32626263
0.29944              0.998396942     -6.57725788
0.30942              0.998083728     -6.83198878
0.3194                0.99775003     -7.09067894
0.32938               0.99739495     -7.35356532
0.33936              0.997017458     -7.62089912
0.34934               0.99661638      -7.8929468
0.35932               0.99619039     -8.16999114
0.3693               0.995737988     -8.45233246
0.37928              0.995257487     -8.74028992
0.38926              0.994746996     -9.03420289
0.39924              0.994204391     -9.33443259
0.40922              0.993627302     -9.64136374
0.4192               0.993013077     -9.95540644
0.42918              0.992358756     -10.2769983
0.43916              0.991661041     -10.6066065
0.44914              0.990916249     -10.9447307
0.45912              0.990120278     -11.2919052
0.4691                0.98926855     -11.6487027
0.47908              0.988355962     -12.0157369
0.48906              0.987376818     -12.3936665
0.49904              0.986324759     -12.7831996
0.50902              0.985192676     -13.1850977
0.519                0.983972623     -13.6001807
0.52898              0.982655701     -14.0293327
0.53896              0.981231934     -14.4735078
0.54894              0.979690128     -14.9337368
0.55892              0.978017704     -15.4111348
0.5689               0.976200501     -15.9069087
0.57888              0.974222561     -16.4223668
0.58886              0.972065866      -16.958928
0.59884               0.96971004      -17.518133
0.60882              0.967132005     -18.1016552
0.6188                0.96430557      -18.711314
0.62878              0.961200967     -19.3490877
0.63876              0.957784299     -20.0171276
0.64874              0.954016903     -20.7177736
0.65872              0.949854608     -21.4535685
0.6687               0.945246868     -22.2272732
0.67868              0.940135765     -23.0418807
0.68866              0.934454845     -23.9006276
0.69864              0.928127786     -24.8070014
0.70862              0.921066867     -25.7647421
0.7186               0.913171243     -26.7778325
0.72858              0.904325003     -27.8504736
0.73856              0.894395045     -28.9870366
0.74854              0.883228803     -30.1919809
0.75852              0.870651911     -31.4697231
0.7685               0.856465973     -32.8244353
0.77848              0.840446682     -34.2597419
0.78846              0.822342699     -35.7782717
0.79844              0.801875883     -37.3810046
0.80842              0.778743734      -39.066324
0.8184               0.752625218     -40.8286478
0.82838              0.723191517     -42.6564513
0.83836              0.690123614     -44.5293976
0.84834              0.653138929     -46.4141288
0.85832              0.612029399     -48.2579817
0.8683               0.566713492     -49.9793505
0.87828              0.517305054     -51.4523661
0.88826              0.464203973     -52.4814852
0.89824               0.40822099     -52.7575627
0.90822              0.350769643     -51.7801592
0.9182                0.29420715     -48.7258837
0.92818              0.242484846     -42.2852125
0.93816              0.202164008     -30.8145059
0.94814              0.182345867     -14.0765856
0.95812              0.189065894      3.81351635
0.9681               0.218082218       17.501865
0.97808              0.259680816      25.9082835
0.98806              0.306331515      30.4938216
0.99804              0.353777502      32.7173511
1.00802              0.399803459      33.5257626
1.018                0.443296362      33.4848276
1.02798              0.483745194      32.9329017
1.03796              0.520979715      32.0766584
1.04794              0.555026108      31.0451632
1.05792              0.586022181      29.9204074
1.0679               0.614165439      28.7550094
1.07788              0.639680683      27.5828142
1.08786              0.662799873      26.4254384
1.09784              0.683749894      25.2964211
1.10782              0.702745515       24.203917
1.1178               0.719985701       23.152475
1.12778              0.735652098      22.1442297
1.132252             0.742205632      21.7066369
1.13776              0.749908858      21.1797085
1.14774              0.762903278      20.2583827
1.15772              0.774766889      19.3790446
1.1677               0.785616759       18.540068
1.17768              0.795556873       17.739586
1.18766              0.804679486      16.9756134
1.19764              0.813066415      16.2461287
1.20762              0.820790222      15.5491303
1.2176                 0.8279153      14.8826714
1.22758              0.834498835      14.2448834
1.23756              0.840591672      13.6339888
1.24754              0.846239071      13.0483075
1.25752              0.851481383      12.4862598
1.2675               0.856354631      11.9463653
1.27748              0.860891031        11.42724
1.28746              0.865119437      10.9275925
1.29744              0.869065739      10.4462195
1.30742              0.872753205       9.9820002
1.3174               0.876202783      9.53389166
1.32738              0.879433364       9.1009231
1.33736              0.882462015      8.68219103
1.34734              0.885304178      8.27685439
1.35732              0.887973849      7.88412988
1.3673               0.890483735      7.50328765
1.37728              0.892845392      7.13364725
1.38726              0.895069344      6.77457384
1.39724              0.897165188      6.42547469
1.40722              0.899141697      6.08579595
1.4172               0.901006891      5.75501967
1.42718              0.902768123      5.43266103
1.43716              0.904432138      5.11826583
1.44714              0.906005131      4.81140813
1.45712              0.907492805      4.51168813
1.4671               0.908900411       4.2187302
1.47708              0.910232792      3.93218105
1.48706              0.911494421      3.65170807
1.49704              0.912689435      3.37699781
1.50702              0.913821661      3.10775456
1.517                0.914894646      2.84369905
1.52698              0.915911681      2.58456726
1.53696               0.91687582      2.33010932
1.54694              0.917789904      2.08008847
1.55692              0.918656574      1.83428017
1.5669               0.919478291      1.59247117
1.57688              0.920257347      1.35445878
1.58686              0.920995881      1.12005006
1.59684              0.921695888     0.889061174
1.60682              0.922359235     0.661316734
1.6168               0.922987662     0.436649221
1.62678              0.923582801     0.214898427
1.63676              0.924146176  -0.00408905658
1.64674              0.924679216    -0.220460313
1.65672              0.925183259    -0.434356549
1.6667               0.925659557    -0.645913507
1.67668              0.926109285    -0.855261854
1.68666              0.926533544     -1.06252755
1.69664              0.926933366     -1.26783218
1.70662              0.927309719      -1.4712933
1.7166               0.927663509     -1.67302469
1.72658              0.927995587      -1.8731367
1.73656              0.928306749     -2.07173648
1.74654              0.928597741     -2.26892825
1.75652              0.928869259     -2.46481352
1.7665               0.929121957     -2.65949136
1.77648              0.929356443     -2.85305858
1.78646              0.929573284     -3.04560998
1.79644              0.929773011     -3.23723851
1.80642              0.929956112      -3.4280355
1.8164               0.930123044      -3.6180908
1.82638              0.930274226     -3.80749303
1.83636              0.930410046     -3.99632968
1.84634              0.930530859     -4.18468734
1.85632              0.930636986     -4.37265183
1.8663               0.930728721     -4.56030837
1.87628              0.930806327     -4.74774177
1.877225             0.930812952     -4.76548121
1.88626              0.930870037     -4.93503652
1.89624              0.930920055     -5.12227704
1.90622              0.930956557     -5.30954775
1.9162               0.930979691     -5.49693328
1.92618              0.930989576     -5.68451861
1.93616              0.930986303     -5.87238921
1.94614              0.930969934     -6.06063122
1.95612              0.930940504     -6.24933163
1.9661               0.930898017     -6.43857839
1.97608               0.93084245     -6.62846062
1.98606              0.930773748     -6.81906875
1.99604              0.930691825     -7.01049474
2.00602              0.930596564     -7.20283221
2.016                0.930487815     -7.39617667
2.02598              0.930365395     -7.59062567
2.03596              0.930229084     -7.78627906
2.04594              0.930078626     -7.98323913
2.05592              0.929913727      -8.1816109
2.0659               0.929734051     -8.38150228
2.07588              0.929539221     -8.58302438
2.08586              0.929328814      -8.7862917
2.09584              0.929102359     -8.99142245
2.10582              0.928859335     -9.19853879
2.1158               0.928599168     -9.40776714
2.12578              0.928321225     -9.61923852
2.13576              0.928024813     -9.83308885
2.14574              0.927709172     -10.0494593
2.15572              0.927373473     -10.2684967
2.1657               0.927016811     -10.4903539
2.17568              0.926638198     -10.7151903
2.18566              0.926236561     -10.9431721
2.19564              0.925810731     -11.1744729
2.20562              0.925359435     -11.4092744
2.2156               0.924881291     -11.6477665
2.22558              0.924374795     -11.8901484
2.23556              0.923838313     -12.1366289
2.24554              0.923270068     -12.3874271
2.25552              0.922668128     -12.6427733
2.2655               0.922030391     -12.9029097
2.27548              0.921354572      -13.168091
2.28546              0.920638181     -13.4385857
2.29544              0.919878509     -13.7146768
2.30542              0.919072603     -13.9966627
2.3154               0.918217243     -14.2848587
2.32538              0.917308916     -14.5795978
2.33536              0.916343788     -14.8812321
2.34534              0.915317668      -15.190134
2.35532              0.914225974     -15.5066981
2.3653               0.913063689     -15.8313419
2.37528              0.911825321     -16.1645083
2.38526              0.910504844     -16.5066666
2.39524              0.909095647     -16.8583148
2.40522              0.907590466     -17.2199812
2.4152               0.905981314     -17.5922267
2.42518              0.904259397     -17.9756464
2.43516              0.902415027     -18.3708721
2.44514              0.900437516     -18.7785746
2.45512              0.898315062     -19.1994653
2.4651                0.89603462     -19.6342989
2.47508              0.893581756      -20.083875
2.48506              0.890940486     -20.5490404
2.49504              0.888093088     -21.0306901
2.50502              0.885019896     -21.5297685
2.515                0.881699075       -22.04727
2.52498              0.878106355     -22.5842382
2.53496              0.874214746     -23.1417642
2.54494              0.869994219     -23.7209828
2.55492              0.865411349     -24.3230667
2.5649               0.860428925     -24.9492173
2.57488              0.855005527     -25.6006518
2.58486              0.849095063     -26.2785841
2.59484              0.842646286      -26.984199
2.60482              0.835602279     -27.7186174
2.6148               0.827899945     -28.4828481
2.62478                0.8194695     -29.2777244
2.63476              0.810234018     -30.1038196
2.64474              0.800109076     -30.9613348
2.65472              0.789002548      -31.849952
2.6647               0.776814654     -32.7686399
2.67468               0.76343839     -33.7154008
2.68466              0.748760488     -34.6869391
2.69464              0.732663131     -35.6782291
2.70462               0.71502669     -36.6819514
2.7146               0.695733813     -37.6877602
2.72458               0.67467528     -38.6813307
2.73456              0.651758075     -39.6431229
2.74454              0.626916232     -40.5467796
2.75452              0.600124998     -41.3570577
2.7645               0.571418952     -42.0271745
2.77448               0.54091469     -42.4954471
2.78446              0.508838731     -42.6811559
2.79444              0.475561294     -42.4797533
2.80442              0.441636385     -41.7580808
2.8144               0.407847641     -40.3515728
2.82438              0.375255786      -38.068248
2.83436              0.345233567     -34.7092489
2.84434              0.319452201     -30.1210909
2.85432              0.299751289     -24.2905106
2.8643               0.287817101     -17.4572254
2.87428              0.284694517     -10.1526685
2.88426              0.290375863      -3.0657872
2.89424               0.30378805      3.21108587
2.90422              0.323203126      8.35896738
2.9142               0.346758799      12.3301628
2.92418              0.372808137      15.2433899
2.93416              0.400051658      17.2808271
2.94414              0.427534027      18.6266658
2.95412              0.454587364      19.4410783
2.9641                0.48076573      19.8538647
2.97408              0.505787726      19.9665431
2.98406              0.529490999      19.8570875
2.99404              0.551797739        19.58485
3.00402              0.572689028      19.1948124
3.014                0.592186006      18.7209963
3.02398              0.610336154      18.1891042
3.03396              0.627203384      17.6185318
3.04394               0.64286097      17.0238907
3.05392              0.657386563      16.4161579
3.0639               0.670858745      15.8035441
3.07388              0.683354704      15.1921511
3.08386              0.694948721      14.5864705
3.09384              0.705711246      13.9897633
3.10382              0.715708384      13.4043498
3.1138               0.725001674      12.8318315
3.12378              0.733648062      12.2732614
3.13376              0.741700014      11.7292751
3.14374              0.749205705      11.2001915
3.15372              0.756209261      10.6860912
3.1637                0.76275103      10.1868761
3.17368               0.76886786      9.70231683
3.18366              0.774593379      9.23208789
3.19364              0.779958259      8.77579601
3.20362              0.784990474      8.33300138
3.2136               0.789715542      7.90323417
3.22358              0.794156743      7.48600719
3.23356              0.798335329      7.08082546
3.24354              0.802270708      6.68719353
3.25352              0.805980616      6.30462087
3.2635               0.809481274      5.93262593
3.27348              0.812787531      5.57073902
3.28346              0.815912988      5.21850432
3.29344              0.818870115      4.87548123
3.30342              0.821670357      4.54124528
3.3134               0.824324228      4.21538846
3.32338              0.826841393      3.89751945
3.33336               0.82923075      3.58726346
3.34334              0.831500494      3.28426199
3.35332              0.833658181      2.98817244
3.3633               0.835710786       2.6986676
3.37328              0.837664754       2.4154351
3.38326              0.839526044      2.13817687
3.39324               0.84130017      1.86660846
3.40322              0.842992241      1.60045847
3.4132               0.844606995      1.33946787
3.42318              0.846148828      1.08338946
3.43316              0.847621823     0.831987184
3.44314              0.849029775      0.58503559
3.45312              0.850376215     0.342319239
3.4631                0.85166443     0.103632162
3.47308              0.852897482    -0.131222675
3.48306              0.854078225    -0.362433871
3.49304              0.855209324    -0.590182076
3.50302              0.856293263    -0.814640454
3.513                0.857332366     -1.03597512
3.52298              0.858328803     -1.25434554
3.53296              0.859284602     -1.46990498
3.54294              0.860201662     -1.68280082
3.55292              0.861081758     -1.89317494
3.5629               0.861926555     -2.10116408
3.57288              0.862737608     -2.30690011
3.58286              0.863516377     -2.51051041
3.59284              0.864264227     -2.71211809
3.60282              0.864982437      -2.9118423
3.6128               0.865672208     -3.10979851
3.62278              0.866334662     -3.30609872
3.63276               0.86697085     -3.50085174
3.64274              0.867581757      -3.6941634
3.65272              0.868168304     -3.88613677
3.6627               0.868731352     -4.07687235
3.67268              0.869271706     -4.26646833
3.68266              0.869790117     -4.45502071
3.69264              0.870287285     -4.64262354
3.70262              0.870763862     -4.82936906
3.7126               0.871220452     -5.01534792
3.72258              0.871657617     -5.20064929
3.73256              0.872075875     -5.38536108
3.74254              0.872475704     -5.56957005
3.75252              0.872857542       -5.753362
3.7625               0.873221789      -5.9368219
3.77248              0.873568809     -6.12003405
3.78246              0.873898929     -6.30308222
3.79244              0.874212441     -6.48604981
3.80242              0.874509603     -6.66901997
3.8124               0.874790638     -6.85207575
3.82238              0.875055738     -7.03530024
3.83236              0.875305058     -7.21877675
3.84234              0.875538724     -7.40258887
3.85232              0.875756827     -7.58682069
3.8623               0.875959424     -7.77155692
3.87228              0.876146541     -7.95688302
3.88226              0.876318167     -8.14288534
3.89224              0.876474259     -8.32965134
3.90222              0.876614738     -8.51726963
3.9122                0.87673949     -8.70583025
3.92218              0.876848363     -8.89542474
3.93216              0.876941166     -9.08614633
3.94214              0.877017672     -9.27809013
3.95212              0.877077609      -9.4713533
3.9621               0.877120665     -9.66603522
3.97208               0.87714648     -9.86223767
3.98206              0.877154651     -10.0600651
3.99204              0.877144723     -10.2596246
4.00202              0.877116188     -10.4610265
4.012                0.877068485     -10.6643843
4.02198              0.877000994      -10.869815
4.03196              0.876913031     -11.0774391
4.04194              0.876803848     -11.2873813
4.05192              0.876672624     -11.4997706
4.0619               0.876518466     -11.7147401
4.07188              0.876340395     -11.9324281
4.08186              0.876137349     -12.1529778
4.09184              0.875908172     -12.3765377
4.10182              0.875651607     -12.6032622
4.1118               0.875366289     -12.8333116
4.12178              0.875050736     -13.0668528
4.13176              0.874703342     -13.3040591
4.14174              0.874322361     -13.5451113
4.15172              0.873905904     -13.7901976
4.1617               0.873451919     -14.0395141
4.17168              0.872958182     -14.2932655
4.18166              0.872422282      -14.551665
4.19164              0.871841602     -14.8149352
4.20162              0.871213303     -15.0833083
4.2116               0.870534305     -15.3570267
4.22158              0.869801266     -15.6363434
4.23156              0.869010554     -15.9215223
4.24154              0.868158227     -16.2128388
4.25152              0.867240001     -16.5105802
4.2615               0.866251221     -16.8150458
4.27148              0.865186825     -17.1265477
4.28146              0.864041306     -17.4454106
4.29144              0.862808675     -17.7719723
4.30142              0.861482412     -18.1065836
4.3114               0.860055421     -18.4496081
4.32138              0.858519971     -18.8014223
4.33136              0.856867646      -19.162415
4.34134              0.855089275     -19.5329864
4.35132              0.853174865     -19.9135473
4.3613               0.851113531     -20.3045174
4.37128              0.848893412     -20.7063234
4.38126              0.846501588     -21.1193964
4.39124              0.843923988     -21.5441688
4.40122              0.841145297     -21.9810693
4.4112                0.83814885     -22.4305186
4.42118              0.834916533     -22.8929215
4.43116              0.831428673     -23.3686596
4.44114              0.827663931     -23.8580804
4.45112                0.8235992     -24.3614847
4.4611                 0.8192095     -24.8791116
4.47108              0.814467896     -25.4111193
4.48106              0.809345424     -25.9575628
4.49104              0.803811045     -26.5183658
4.50102              0.797831631     -27.0932885
4.511                0.791372005     -27.6818873
4.52098              0.784395039     -28.2834678
4.53096              0.776861832     -28.8970282
4.54094              0.768731993     -29.5211928
4.55092              0.759964056     -30.1541327
4.5609                0.75051605     -30.7934734
4.57088              0.740346259     -31.4361867
4.58086               0.72941422     -32.0784647
4.59084              0.717681971     -32.7155758
4.60082              0.705115621      -33.341699
4.6108               0.691687245     -33.9497383
4.62078              0.677377149      -34.531115
4.63076              0.662176527      -35.075541
4.64074              0.646090495      -35.570777
4.65072              0.629141487     -36.0023834
4.6607               0.611372969     -36.3534767
4.67068              0.592853361     -36.6045144
4.68066              0.573680042     -36.7331412
4.69064              0.553983245     -36.7141459
4.70062              0.533929566     -36.5196054
4.7106                0.51372474      -36.119317
4.72058              0.493615221     -35.4816573
4.73056              0.473887936     -34.5750382
4.74054              0.454867424     -33.3701387
4.75052              0.436909389     -31.8430511
4.7605               0.420389598     -29.9793378
4.77048              0.405687254     -27.7787054
4.78046              0.393162624     -25.2595604
4.79044              0.383130076     -22.4622292
4.80042              0.375829613     -19.4493679
4.8104               0.371401948     -16.3024104
4.82038               0.36987289     -13.1139787
4.83036              0.371151482     -9.97767144
4.84034              0.375042863     -6.97776672
4.85032              0.381272743     -4.18139951
4.8603               0.389517595     -1.63469494
4.87028               0.39943434      0.63715534
4.88026              0.410684991      2.62698277
4.89024              0.422954181      4.34135858
4.90022              0.435959615      5.79615777
4.9102               0.449456702      7.01271098
4.92018              0.463239016      8.01484084
4.93016              0.477136144      8.82678646
4.94014              0.491010108      9.47187566
4.95012              0.504751225      9.97176244
4.9601               0.518273919      10.3460599
4.97008              0.531512795       10.612232
4.98006              0.544419115       10.785643
4.99004              0.556957739      10.8796963
5.00002              0.569104522      10.9060155
5.01                 0.580844122      10.8746397
5.01998                0.5921682      10.7942168
5.02996              0.603073923      10.6721829
5.03994              0.613562761      10.5149273
5.04992                0.6236395       10.327937
5.0599               0.633311451      10.1159248
5.06988              0.642587818       9.8829394
5.07986              0.651479184      9.63246073
5.08984              0.659997114      9.36748146
5.09982              0.668153827      9.09057661
5.1098               0.675961948      8.80396293
5.11978              0.683434306      8.50954951
5.12976              0.690583782      8.20898073
5.13974              0.697423181      7.90367303
5.14972              0.703965147      7.59484609
5.1597               0.710222086      7.28354952
5.16968              0.716206114      6.97068568
5.17966              0.721929019      6.65702918
5.18964              0.727402229      6.34324363
5.19962              0.732636795      6.02989607
5.2096                0.73764338      5.71746934
5.21958              0.742432249      5.40637285
5.22956              0.747013265      5.09695183
5.23954              0.751395896       4.7894954
5.24952              0.755589213      4.48424359
5.2595               0.759601901      4.18139342
5.26948              0.763442261      3.88110426
5.27946              0.767118224      3.58350246
5.28944              0.770637358       3.2886855
5.29942              0.774006881      2.99672553
5.3094                0.77723367      2.70767256
5.31938              0.780324274      2.42155723
5.32936              0.783284926      2.13839324
5.33934              0.786121554      1.85817955
5.34932              0.788839792      1.58090225
5.3593               0.791444997      1.30653627
5.36928              0.793942252      1.03504685
5.37926              0.796336385     0.766390869
5.38924              0.798631978     0.500517971
5.39922              0.800833376     0.237371626
5.4092               0.802944699   -0.0231099875
5.41918              0.804969853    -0.280993183
5.42916              0.806912539    -0.536348066
5.43914              0.808776262     -0.78924792
5.44912               0.81056434     -1.03976866
5.4591               0.812279917     -1.28798838
5.46908              0.813925965      -1.5339869
5.47906              0.815505295     -1.77784544
5.48904              0.817020567      -2.0196463
5.49902              0.818474293     -2.25947258
5.509                0.819868847     -2.49740796
5.51898              0.821206471     -2.73353648
5.52896              0.822489278     -2.96794238
5.53894              0.823719266     -3.20070998
5.54892              0.824898313     -3.43192353
5.5589               0.826028192     -3.66166712
5.56888              0.827110569     -3.89002461
5.57886              0.828147011     -4.11707955
5.58884               0.82913899     -4.34291515
5.59882              0.830087887     -4.56761427
5.6088               0.830994996     -4.79125932
5.61878              0.831861527     -5.01393234
5.62876              0.832688611     -5.23571494
5.63874              0.833477301     -5.45668832
5.64872              0.834228576     -5.67693329
5.6587               0.834943344     -5.89653032
5.66868              0.835622443      -6.1155595
5.67866              0.836266648     -6.33410063
5.68864              0.836876666     -6.55223323
5.69862              0.837453142      -6.7700366
5.7086               0.837996663     -6.98758986
5.71858              0.838507755     -7.20497199
5.72856              0.838986885      -7.4222619
5.73854              0.839434466     -7.63953846
5.74852              0.839850855     -7.85688059
5.7585               0.840236353     -8.07436731
5.76848              0.840591209      -8.2920778
5.77846              0.840915617     -8.51009147
5.78844              0.841209721       -8.728488
5.79842              0.841473609     -8.94734747
5.8084                0.84170732     -9.16675038
5.81838              0.841910838     -9.38677775
5.82836              0.842084095     -9.60751118
5.83834              0.842226971     -9.82903293
5.84832              0.842339291      -10.051426
5.8583               0.842420826     -10.2747743
5.86828              0.842471294     -10.4991624
5.87826              0.842490353     -10.7246761
5.88824              0.842477607     -10.9514023
5.89822              0.842432599     -11.1794288
5.9082               0.842354813     -11.4088447
5.91818               0.84224367     -11.6397407
5.92816              0.842098528     -11.8722087
5.93814              0.841918676     -12.1063419
5.94812              0.841703337     -12.3422356
5.9581                0.84145166     -12.5799862
5.96808              0.841162721     -12.8196924
5.97806              0.840835518     -13.0614544
5.98804              0.840468966     -13.3053745
5.99802              0.840061898     -13.5515568
6.008                0.839613055     -13.8001079
6.01798              0.839121084     -14.0511362
6.02796              0.838584537     -14.3047527
6.03794              0.838001859     -14.5610704
6.04792              0.837371386      -14.820205
6.0579               0.836691339     -15.0822744
6.06788              0.835959819     -15.3473992
6.07786              0.835174795     -15.6157026