! 2-Port simulation of a MSL
# GHz S MA R 50
0                    0.002582097             180         0.990615   -2.266933e-12         0.990616   -2.266933e-12      0.002580427             180
0.012                0.002582078        179.3139        0.9906146      -0.5012101        0.9906156      -0.5012104      0.002580408         179.314
0.024                0.002582021        178.6278        0.9906138        -1.00242        0.9906147       -1.002421      0.002580351         178.628
0.036                0.002581925        177.9418        0.9906124       -1.503629        0.9906133        -1.50363      0.002580256        177.9421
0.048                0.002581792        177.2558        0.9906103       -2.004838        0.9906113       -2.004839      0.002580122        177.2562
0.06                  0.00258162        176.5699        0.9906078       -2.506045        0.9906087       -2.506047      0.002579951        176.5704
0.072                 0.00258141        175.8841        0.9906046       -3.007252        0.9906055       -3.007254      0.002579741        175.8847
0.084                0.002581161        175.1984        0.9906009       -3.508457        0.9906019        -3.50846      0.002579493        175.1991
0.096                0.002580873        174.5128        0.9905966       -4.009661        0.9905975       -4.009664      0.002579206        174.5136
0.108                0.002580548        173.8274        0.9905919       -4.510861        0.9905928       -4.510865      0.002578881        173.8282
0.12                 0.002580183        173.1421        0.9905863       -5.012061        0.9905873       -5.012065      0.002578517        173.1431
0.132                 0.00257978         172.457        0.9905804       -5.513258        0.9905813       -5.513262      0.002578114        172.4581
0.144                0.002579338        171.7721        0.9905739       -6.014452        0.9905748       -6.014457      0.002577673        171.7733
0.156                0.002578856        171.0875        0.9905667       -6.515644        0.9905675       -6.515649      0.002577192        171.0887
0.168                0.002578335         170.403         0.990559       -7.016832        0.9905599       -7.016837      0.002576672        170.4044
0.18                 0.002577775        169.7188        0.9905508       -7.518017        0.9905516       -7.518023      0.002576112        169.7203
0.192                0.002577175        169.0349         0.990542       -8.019199        0.9905428       -8.019205      0.002575514        169.0365
0.204                0.002576535        168.3513        0.9905325       -8.520377        0.9905335       -8.520382      0.002574875        168.3529
0.216                0.002575855         167.668        0.9905225        -9.02155        0.9905235       -9.021557      0.002574196        167.6697
0.228                0.002575134         166.985         0.990512        -9.52272        0.9905129       -9.522727      0.002573477        166.9868
0.24                 0.002574374        166.3024         0.990501       -10.02388        0.9905019       -10.02389      0.002572717        166.3043
0.252                0.002573571        165.6201        0.9904893       -10.52504        0.9904902       -10.52505      0.002571917        165.6221
0.264                0.002572729        164.9382         0.990477        -11.0262         0.990478       -11.02621      0.002571075        164.9403
0.276                0.002571844        164.2566        0.9904643       -11.52735        0.9904653       -11.52736      0.002570192        164.2589
0.288                0.002570918        163.5756         0.990451       -12.02849        0.9904518        -12.0285      0.002569268        163.5779
0.3                   0.00256995        162.8949         0.990437       -12.52963         0.990438       -12.52964      0.002568301        162.8973
0.312                0.002568939        162.2147        0.9904226       -13.03077        0.9904235       -13.03078      0.002567293        162.2172
0.324                0.002567886        161.5349        0.9904076       -13.53189        0.9904084        -13.5319      0.002566242        161.5375
0.336                 0.00256679        160.8556         0.990392       -14.03301        0.9903929       -14.03303      0.002565147        160.8584
0.348                 0.00256565        160.1769        0.9903759       -14.53413        0.9903767       -14.53414       0.00256401        160.1797
0.36                 0.002564467        159.4986        0.9903591       -15.03524        0.9903601       -15.03525      0.002562828        159.5015
0.372                 0.00256324        158.8209        0.9903419       -15.53633        0.9903428       -15.53635      0.002561603        158.8239
0.384                0.002561968        158.1437        0.9903241       -16.03743         0.990325       -16.03744      0.002560333        158.1468
0.396                0.002560652        157.4671        0.9903058       -16.53851        0.9903067       -16.53853      0.002559019        157.4703
0.408                 0.00255929        156.7911        0.9902869       -17.03959        0.9902878        -17.0396      0.002557659        156.7944
0.42                 0.002557882        156.1157        0.9902675       -17.54066        0.9902684       -17.54068      0.002556254        156.1191
0.432                0.002556428        155.4409        0.9902476       -18.04172        0.9902484       -18.04173      0.002554802        155.4444
0.444                0.002554927        154.7667        0.9902269       -18.54278        0.9902278       -18.54279      0.002553304        154.7704
0.456                 0.00255338        154.0932        0.9902059       -19.04382        0.9902068       -19.04383      0.002551759        154.0969
0.468                0.002551784        153.4204        0.9901842       -19.54486        0.9901851       -19.54487      0.002550166        153.4242
0.48                 0.002550141        152.7482        0.9901621       -20.04588        0.9901629        -20.0459      0.002548526        152.7521
0.492                 0.00254845        152.0767        0.9901394        -20.5469        0.9901402       -20.54691      0.002546838        152.0808
0.504                 0.00254671         151.406        0.9901162       -21.04791        0.9901171       -21.04792        0.0025451        151.4101
0.516                 0.00254492         150.736        0.9900925        -21.5489        0.9900932       -21.54892      0.002543313        150.7402
0.528                 0.00254308        150.0667        0.9900682        -22.0499         0.990069       -22.04991      0.002541476        150.0711
0.54                  0.00254119        149.3982        0.9900433       -22.55087        0.9900442       -22.55089      0.002539589        149.4027
0.552                0.002539248        148.7305        0.9900179       -23.05184        0.9900188       -23.05186       0.00253765        148.7351
0.564                0.002537256        148.0636         0.989992        -23.5528        0.9899928       -23.55281      0.002535661        148.0683
0.576                0.002535211        147.3975        0.9899656       -24.05374        0.9899664       -24.05376      0.002533619        147.4023
0.588                0.002533113        146.7322        0.9899386       -24.55468        0.9899395       -24.55469      0.002531525        146.7371
0.6                  0.002530962        146.0678        0.9899112        -25.0556         0.989912       -25.05562      0.002529378        146.0728
0.612                0.002528758        145.4042        0.9898832       -25.55652         0.989884       -25.55653      0.002527177        145.4093
0.624                  0.0025265        144.7415        0.9898547       -26.05742        0.9898555       -26.05744      0.002524922        144.7467
0.636                0.002524186        144.0797        0.9898256       -26.55831        0.9898264       -26.55833      0.002522612         144.085
0.648                0.002521817        143.4188        0.9897961       -27.05918        0.9897969        -27.0592      0.002520247        143.4242
0.66                 0.002519393        142.7588         0.989766       -27.56005        0.9897668       -27.56007      0.002517826        142.7643
0.672                0.002516911        142.0997        0.9897354        -28.0609        0.9897362       -28.06092      0.002515348        142.1054
0.684                0.002514372        141.4416        0.9897043       -28.56174        0.9897052       -28.56176      0.002512813        141.4474
0.696                0.002511776        140.7845        0.9896728       -29.06256        0.9896736       -29.06259       0.00251022        140.7904
0.708                0.002509121        140.1283        0.9896407       -29.56338        0.9896415        -29.5634      0.002507569        140.1343
0.72                 0.002506407        139.4731        0.9896081       -30.06418        0.9896089       -30.06421       0.00250486        139.4793
0.732                0.002503633         138.819        0.9895749       -30.56497        0.9895757       -30.56499       0.00250209        138.8252
0.744                0.002500799        138.1659        0.9895413       -31.06575        0.9895422       -31.06576      0.002499261        138.1722
0.756                0.002497904        137.5138        0.9895072        -31.5665        0.9895081       -31.56652       0.00249637        137.5202
0.768                0.002494948        136.8627        0.9894727       -32.06725        0.9894735       -32.06727      0.002493418        136.8693
0.78                  0.00249193        136.2128        0.9894376       -32.56798        0.9894384         -32.568      0.002490404        136.2194
0.792                0.002488849        135.5639        0.9894021       -33.06869        0.9894029       -33.06872      0.002487327        135.5707
0.804                0.002485704        134.9161         0.989366        -33.5694        0.9893668       -33.56942      0.002484187         134.923
0.816                0.002482495        134.2694        0.9893294       -34.07009        0.9893303       -34.07011      0.002480983        134.2764
0.828                0.002479221        133.6238        0.9892925       -34.57076        0.9892933       -34.57078      0.002477714         133.631
0.84                 0.002475882        132.9794         0.989255       -35.07141        0.9892558       -35.07144       0.00247438        132.9867
0.852                0.002472477        132.3362         0.989217       -35.57206        0.9892177       -35.57208       0.00247098        132.3436
0.864                0.002469006        131.6941        0.9891786       -36.07268        0.9891793       -36.07271      0.002467513        131.7016
0.876                0.002465467        131.0532        0.9891396        -36.5733        0.9891405       -36.57331      0.002463979        131.0608
0.888                 0.00246186        130.4135        0.9891003       -37.07388        0.9891011       -37.07391      0.002460377        130.4212
0.9                  0.002458184        129.7749        0.9890604       -37.57447        0.9890611        -37.5745      0.002456707        129.7828
0.912                 0.00245444        129.1377        0.9890201       -38.07503        0.9890209       -38.07506      0.002452967        129.1457
0.924                0.002450625        128.5016        0.9889794       -38.57557        0.9889801        -38.5756      0.002449157        128.5098
0.936                0.002446739        127.8669        0.9889381        -39.0761        0.9889388       -39.07613      0.002445277        127.8751
0.948                0.002442783        127.2333        0.9888965       -39.57662        0.9888972       -39.57664      0.002441326        127.2417
0.96                 0.002438754        126.6011        0.9888543       -40.07711         0.988855       -40.07714      0.002437303        126.6096
0.972                0.002434652        125.9702        0.9888117       -40.57759        0.9888124       -40.57762      0.002433207        125.9788
0.984                0.002430478        125.3406        0.9887687       -41.07805        0.9887693       -41.07808      0.002429038        125.3493
0.996                 0.00242623        124.7122        0.9887251        -41.5785        0.9887258       -41.57853      0.002424795        124.7211
1.008                0.002421907        124.0853        0.9886813       -42.07893         0.988682       -42.07895      0.002420479        124.0943
1.02                 0.002417509        123.4597        0.9886369       -42.57933        0.9886377       -42.57936      0.002416086        123.4688
1.032                0.002413035        122.8354        0.9885922       -43.07972        0.9885928       -43.07975      0.002411618        122.8447
1.044                0.002408484        122.2126         0.988547       -43.58009        0.9885477       -43.58012      0.002407074         122.222
1.056                0.002403856        121.5911        0.9885013       -44.08045         0.988502       -44.08048      0.002402452        121.6007
1.068                0.002399151         120.971        0.9884554       -44.58078         0.988456       -44.58081      0.002397753        120.9807
1.08                 0.002394367        120.3524        0.9884087       -45.08111        0.9884094       -45.08113      0.002392975        120.3623
1.092                0.002389505        119.7352        0.9883618        -45.5814        0.9883626       -45.58143      0.002388118        119.7452
1.104                0.002384562        119.1195        0.9883145       -46.08168        0.9883153       -46.08171      0.002383182        119.1296
1.116                 0.00237954        118.5052        0.9882668       -46.58194        0.9882675       -46.58197      0.002378166        118.5155
1.128                0.002374435        117.8924        0.9882186       -47.08219        0.9882194       -47.08221      0.002373068        117.9028
1.14                  0.00236925        117.2811        0.9881701        -47.5824        0.9881708       -47.58243       0.00236789        117.2917
1.152                0.002363983        116.6714        0.9881212        -48.0826        0.9881219       -48.08263      0.002362629         116.682
1.164                0.002358633        116.0631        0.9880719       -48.58279        0.9880725       -48.58282      0.002357285        116.0739
1.176                0.002353199        115.4564         0.988022       -49.08296        0.9880227       -49.08299      0.002351858        115.4674
1.188                0.002347682        114.8513        0.9879718        -49.5831        0.9879726       -49.58313      0.002346347        114.8624
1.2                   0.00234208        114.2478        0.9879214       -50.08322        0.9879221       -50.08325      0.002340752         114.259
1.212                0.002336392        113.6458        0.9878706       -50.58333        0.9878711       -50.58336      0.002335071        113.6571
1.224                0.002330619        113.0454        0.9878192       -51.08341        0.9878199       -51.08344      0.002329306        113.0569
1.236                0.002324759        112.4467        0.9877675       -51.58347        0.9877682        -51.5835      0.002323453        112.4583
1.248                0.002318813        111.8496        0.9877155       -52.08351        0.9877161       -52.08355      0.002317514        111.8614
1.26                 0.002312779        111.2541        0.9876631       -52.58354        0.9876638       -52.58356      0.002311487        111.2661
1.272                0.002306657        110.6604        0.9876104       -53.08353        0.9876109       -53.08358      0.002305373        110.6725
1.284                0.002300447        110.0683        0.9875573       -53.58352        0.9875579       -53.58355       0.00229917        110.0806
1.296                0.002294147        109.4779        0.9875036       -54.08348        0.9875042       -54.08352      0.002292877        109.4904
1.308                0.002287758        108.8893        0.9874497       -54.58341        0.9874504       -54.58344      0.002286496        108.9019
1.32                 0.002281279        108.3024        0.9873955       -55.08333        0.9873961       -55.08337      0.002280024        108.3151
1.332                0.002274709        107.7173        0.9873409       -55.58323        0.9873415       -55.58326      0.002273461        107.7301
1.344                0.002268047        107.1339         0.987286       -56.08311        0.9872866       -56.08314      0.002266808        107.1469
1.356                0.002261295        106.5523        0.9872308       -56.58296        0.9872314       -56.58299      0.002260063        106.5655
1.368                0.002254449        105.9726        0.9871751       -57.08279        0.9871758       -57.08282      0.002253225         105.986
1.38                 0.002247512        105.3947        0.9871193        -57.5826        0.9871198       -57.58263      0.002246295        105.4082
1.392                0.002240481        104.8187         0.987063       -58.08239        0.9870634       -58.08243      0.002239273        104.8323
1.404                0.002233356        104.2445        0.9870063       -58.58215        0.9870069       -58.58218      0.002232156        104.2583
1.416                0.002226138        103.6722        0.9869494        -59.0819          0.98695       -59.08193      0.002224946        103.6862
1.428                0.002218825        103.1019        0.9868921       -59.58163        0.9868927       -59.58166      0.002217641        103.1161
1.44                 0.002211417        102.5335        0.9868345       -60.08132        0.9868351       -60.08135      0.002210241        102.5478
1.452                0.002203914         101.967        0.9867767       -60.58099        0.9867772       -60.58103      0.002202746        101.9815
1.464                0.002196315        101.4026        0.9867185       -61.08065        0.9867189       -61.08069      0.002195156        101.4172
1.476                0.002188619        100.8401          0.98666       -61.58028        0.9866605       -61.58032      0.002187469         100.855
1.488                0.002180828        100.2797        0.9866011       -62.07989        0.9866017       -62.07992      0.002179686        100.2947
1.5                  0.002172939        99.72135        0.9865419       -62.57948        0.9865426       -62.57951      0.002171806        99.73653
1.512                0.002164953        99.16507        0.9864827       -63.07904        0.9864831       -63.07908      0.002163829        99.18042
1.524                 0.00215687        98.61089        0.9864229       -63.57859        0.9864234       -63.57863      0.002155754        98.62642
1.536                0.002148689        98.05885        0.9863629       -64.07811        0.9863634       -64.07813      0.002147582        98.07456
1.548                0.002140409        97.50896        0.9863027        -64.5776        0.9863031       -64.57764      0.002139311        97.52485
1.56                 0.002132031        96.96125         0.986242       -65.07707        0.9862424       -65.07711      0.002130942        96.97732
1.572                0.002123554        96.41576        0.9861812       -65.57652        0.9861816       -65.57656      0.002122473          96.432
1.584                0.002114978        95.87253        0.9861201       -66.07595        0.9861206       -66.07599      0.002113906        95.88893
1.596                0.002106302        95.33154        0.9860587       -66.57536        0.9860591       -66.57539       0.00210524        95.34815
1.608                0.002097527        94.79287        0.9859971       -67.07473        0.9859975       -67.07477      0.002096474        94.80964
1.62                 0.002088652        94.25651        0.9859352        -67.5741        0.9859356       -67.57412      0.002087608        94.27347
1.632                0.002079677        93.72252         0.985873       -68.07342        0.9858734       -68.07347      0.002078642         93.7397
1.644                0.002070602        93.19094        0.9858106       -68.57273         0.985811       -68.57277      0.002069576        93.20829
1.656                0.002061425        92.66177         0.985748       -69.07201        0.9857483       -69.07207      0.002060409        92.67933
1.668                0.002052149        92.13509         0.985685       -69.57127        0.9856852       -69.57132      0.002051142        92.15282
1.68                 0.002042771        91.61089        0.9856217       -70.07053        0.9856222       -70.07056      0.002041774        91.62883
1.692                0.002033292        91.08923        0.9855584       -70.56974        0.9855588       -70.56978      0.002032305        91.10735
1.704                0.002023713        90.57015        0.9854947       -71.06894        0.9854951       -71.06897      0.002022736        90.58846
1.716                0.002014032        90.05367        0.9854309       -71.56809        0.9854312       -71.56814      0.002013065         90.0722
1.728                 0.00200425        89.53986        0.9853668       -72.06724        0.9853672       -72.06727      0.002003293        89.55858
1.74                 0.001994366        89.02873        0.9853024       -72.56636        0.9853029       -72.56639      0.001993419        89.04765
1.752                0.001984382        88.52035        0.9852379       -73.06546        0.9852383        -73.0655      0.001983444        88.53948
1.764                0.001974296        88.01475        0.9851732       -73.56453        0.9851735       -73.56457      0.001973368        88.03409
1.776                0.001964108        87.51197        0.9851082       -74.06358        0.9851085       -74.06362       0.00196319        87.53151
1.788                0.001953819        87.01207        0.9850429       -74.56261        0.9850433       -74.56263      0.001952911        87.03183
1.8                  0.001943428        86.51508        0.9849776       -75.06161        0.9849779       -75.06165      0.001942531        86.53505
1.812                0.001932936        86.02108        0.9849119       -75.56058        0.9849123       -75.56062      0.001932049        86.04126
1.824                0.001922343         85.5301        0.9848462       -76.05954        0.9848465       -76.05957      0.001921467         85.5505
1.836                0.001911648         85.0422        0.9847803       -76.55847        0.9847805        -76.5585      0.001910783        85.06281
1.848                0.001900853        84.55742         0.984714       -77.05737        0.9847144        -77.0574      0.001899998        84.57826
1.86                 0.001889957        84.07584        0.9846477       -77.55625        0.9846481       -77.55628      0.001889112         84.0969
1.872                0.001878959        83.59751        0.9845812       -78.05511        0.9845815       -78.05514      0.001878125         83.6188
1.884                0.001867862         83.1225        0.9845145       -78.55395        0.9845149       -78.55398      0.001867039        83.14401
1.896                0.001856664        82.65084        0.9844476       -79.05274         0.984448       -79.05277      0.001855851         82.6726
1.908                0.001845365        82.18265        0.9843805       -79.55151        0.9843808       -79.55157      0.001844564        82.20463
1.92                 0.001833967        81.71796        0.9843133       -80.05028        0.9843136       -80.05034      0.001833177        81.74017
1.932                 0.00182247        81.25685        0.9842459       -80.54902        0.9842462       -80.54905       0.00182169        81.27928
1.944                0.001810873        80.79938        0.9841784       -81.04773        0.9841787       -81.04776      0.001810104        80.82207
1.956                0.001799177        80.34565        0.9841107       -81.54642        0.9841109       -81.54645       0.00179842        80.36858
1.968                0.001787382        79.89572        0.9840428       -82.04508        0.9840431        -82.0451      0.001786636         79.9189
1.98                  0.00177549        79.44968        0.9839748       -82.54374        0.9839751       -82.54376      0.001774755        79.47312
1.992                  0.0017635        79.00762        0.9839068       -83.04234        0.9839069       -83.04237      0.001762776        79.03129
2.004                0.001751412        78.56963        0.9838384       -83.54094        0.9838386       -83.54097        0.0017507        78.59354
2.016                0.001739229        78.13578        0.9837701       -84.03949        0.9837703       -84.03952      0.001738528        78.15995
2.028                0.001726948        77.70618        0.9837015       -84.53804        0.9837018        -84.5381      0.001726259         77.7306
2.04                 0.001714572        77.28093        0.9836327       -85.03656         0.983633       -85.03659      0.001713895        77.30561
2.052                0.001702101        76.86012         0.983564       -85.53509        0.9835642       -85.53511      0.001701436        76.88507
2.064                0.001689536        76.44386         0.983495       -86.03355        0.9834952       -86.03358      0.001688883        76.46908
2.076                0.001676877        76.03228        0.9834259       -86.53199        0.9834262       -86.53202      0.001676236        76.05777
2.088                0.001664126        75.62547        0.9833568        -87.0304         0.983357       -87.03043      0.001663496        75.65124
2.1                  0.001651282        75.22357        0.9832875       -87.52882        0.9832878       -87.52884      0.001650664        75.24961
2.112                0.001638346         74.8267        0.9832183        -88.0272        0.9832184       -88.02723       0.00163774          74.853
2.124                 0.00162532        74.43498        0.9831487       -88.52556        0.9831489       -88.52559      0.001624727        74.46156
2.136                0.001612205        74.04853        0.9830792       -89.02386        0.9830793       -89.02392      0.001611623        74.07542
2.148                0.001599001        73.66755        0.9830095       -89.52217        0.9830097       -89.52219      0.001598432        73.69469
2.16                 0.001585709        73.29212        0.9829398       -90.02044          0.98294        -90.0205      0.001585152        73.31957
2.172                 0.00157233        72.92243        0.9828699       -90.51872          0.98287       -90.51874      0.001571786        72.95017
2.184                0.001558866        72.55863           0.9828       -91.01694        0.9828001       -91.01697      0.001558334        72.58666
2.196                0.001545318        72.20087        0.9827299       -91.51513          0.98273       -91.51521      0.001544799        72.22923
2.208                0.001531686        71.84937        0.9826599       -92.01335        0.9826601       -92.01338       0.00153118          71.878
2.22                 0.001517973        71.50426        0.9825897       -92.51152        0.9825899       -92.51155      0.001517479        71.53321
2.232                0.001504179        71.16575        0.9825196       -93.00966        0.9825197       -93.00969      0.001503698        71.19501
2.244                0.001490306        70.83405        0.9824493       -93.50777        0.9824494        -93.5078      0.001489838        70.86363
2.256                0.001476355        70.50934        0.9823788       -94.00586         0.982379       -94.00591        0.0014759        70.53924
2.268                0.001462328        70.19186        0.9823085       -94.50394        0.9823086       -94.50397      0.001461886        70.22207
2.28                 0.001448227        69.88182         0.982238         -95.002        0.9822381       -95.00203      0.001447798        69.91235
2.292                0.001434053        69.57946        0.9821675           -95.5        0.9821676       -95.50003      0.001433637        69.61032
2.304                0.001419807        69.28502        0.9820969         -95.998        0.9820969       -95.99806      0.001419405        69.31622
2.316                0.001405493        68.99878        0.9820262       -96.49598        0.9820264       -96.49601      0.001405104        69.03031
2.328                0.001391112        68.72097        0.9819557       -96.99393        0.9819558       -96.99395      0.001390737        68.75284
2.34                 0.001376666        68.45192        0.9818849       -97.49185        0.9818851       -97.49193      0.001376304        68.48411
2.352                0.001362156        68.19187        0.9818142       -97.98979        0.9818143       -97.98982      0.001361808        68.22442
2.364                0.001347586        67.94118        0.9817435       -98.48769        0.9817436       -98.48771      0.001347252        67.97406
2.376                0.001332958        67.70016        0.9816727       -98.98555        0.9816727       -98.98558      0.001332638        67.73339
2.388                0.001318274        67.46912        0.9816019       -99.48336        0.9816019       -99.48339      0.001317968        67.50272
2.4                  0.001303537        67.24845        0.9815311        -99.9812        0.9815312       -99.98123      0.001303245        67.28241