! Simulation of a Chebyshev HPF, 6 GHz
# hz S ma R 50
100000000                 1        -3.27477233     9.80829084e-23        -93.2747729     9.80829084e-23        -93.2747729                  1        -3.27477233
102302326                 1        -3.35016748     1.25993109e-22        -93.3501681     1.25993109e-22        -93.3501681                  1        -3.35016748
104604651                 1        -3.42556258     1.60946062e-22        -93.4255632     1.60946062e-22        -93.4255632                  1        -3.42556258
106906977                 1        -3.50095761     2.04502871e-22        -93.5009582     2.04502871e-22        -93.5009582                  1        -3.50095761
109209302                 1        -3.57635257     2.58525036e-22        -93.5763532     2.58525036e-22        -93.5763532                  1        -3.57635257
111511628                 1        -3.65174748     3.25223879e-22        -93.6517481     3.25223879e-22        -93.6517481                  1        -3.65174748
113813953                 1        -3.72714231     4.07216784e-22         -93.727143     4.07216784e-22         -93.727143                  1        -3.72714231
116116279                 1        -3.80253708      5.0759102e-22        -93.8025377      5.0759102e-22        -93.8025377                  1        -3.80253708
118418605                 1        -3.87793178     6.29975981e-22        -93.8779324     6.29975981e-22        -93.8779324                  1        -3.87793178
120720930                 1         -3.9533264     7.78624744e-22        -93.9533271     7.78624744e-22        -93.9533271                  1         -3.9533264
123023256                 1        -4.02872095     9.58505935e-22        -94.0287216     9.58505935e-22        -94.0287216                  1        -4.02872095
125325581                 1        -4.10411542     1.17540696e-21        -94.1041161     1.17540696e-21        -94.1041161                  1        -4.10411542
127627907                 1        -4.17950982     1.43604975e-21        -94.1795105     1.43604975e-21        -94.1795105                  1        -4.17950982
129930233                 1        -4.25490414     1.74822027e-21        -94.2549049     1.74822027e-21        -94.2549049                  1        -4.25490414
132232558                 1        -4.33029837     2.12091313e-21        -94.3302991     2.12091313e-21        -94.3302991                  1        -4.33029837
134534884                 1        -4.40569253     2.56449271e-21        -94.4056933     2.56449271e-21        -94.4056933                  1        -4.40569253
136837209                 1        -4.48108659     3.09087235e-21        -94.4810874     3.09087235e-21        -94.4810874                  1        -4.48108659
139139535                 1        -4.55648057     3.71371338e-21        -94.5564814     3.71371338e-21        -94.5564814                  1        -4.55648057
141441860                 1        -4.63187447     4.44864557e-21        -94.6318753     4.44864557e-21        -94.6318753                  1        -4.63187447
143744186                 1        -4.70726827     5.31351102e-21        -94.7072691     5.31351102e-21        -94.7072691                  1        -4.70726827
146046512                 1        -4.78266198     6.32863364e-21        -94.7826628     6.32863364e-21        -94.7826628                  1        -4.78266198
148348837                 1        -4.85805559     7.51711614e-21        -94.8580564     7.51711614e-21        -94.8580564                  1        -4.85805559
150651163                 1        -4.93344911      8.9051671e-21          -94.93345      8.9051671e-21          -94.93345                  1        -4.93344911
152953488                 1        -5.00884254     1.05224605e-20        -95.0088434     1.05224605e-20        -95.0088434                  1        -5.00884254
155255814                 1        -5.08423586     1.24025302e-20        -95.0842367     1.24025302e-20        -95.0842367                  1        -5.08423586
157558140                 1        -5.15962908     1.45832029e-20          -95.15963     1.45832029e-20          -95.15963                  1        -5.15962908
159860465                 1         -5.2350222     1.71070712e-20        -95.2350231     1.71070712e-20        -95.2350231                  1         -5.2350222
162162791                 1        -5.31041521     2.00220112e-20        -95.3104161     2.00220112e-20        -95.3104161                  1        -5.31041521
164465116                 1        -5.38580812      2.3381748e-20         -95.385809      2.3381748e-20         -95.385809                  1        -5.38580812
166767442                 1        -5.46120092     2.72464713e-20        -95.4612019     2.72464713e-20        -95.4612019                  1        -5.46120092
169069767                 1        -5.53659361     3.16835068e-20        -95.5365946     3.16835068e-20        -95.5365946                  1        -5.53659361
171372093                 1        -5.61198618     3.67680459e-20        -95.6119871     3.67680459e-20        -95.6119871                  1        -5.61198618
173674419                 1        -5.68737865     4.25839385e-20        -95.6873796     4.25839385e-20        -95.6873796                  1        -5.68737865
175976744                 1        -5.76277099     4.92245537e-20         -95.762772     4.92245537e-20         -95.762772                  1        -5.76277099
178279070                 1        -5.83816322     5.67937131e-20        -95.8381642     5.67937131e-20        -95.8381642                  1        -5.83816322
180581395                 1        -5.91355533     6.54067001e-20        -95.9135563     6.54067001e-20        -95.9135563                  1        -5.91355533
182883721                 1        -5.98894732     7.51913538e-20        -95.9889483     7.51913538e-20        -95.9889483                  1        -5.98894732
185186047                 1        -6.06433918     8.62892495e-20        -96.0643402     8.62892495e-20        -96.0643402                  1        -6.06433918
187488372                 1        -6.13973092     9.88569739e-20         -96.139732     9.88569739e-20         -96.139732                  1        -6.13973092
189790698                 1        -6.21512254     1.13067501e-19        -96.2151236     1.13067501e-19        -96.2151236                  1        -6.21512254
192093023                 1        -6.29051402     1.29111673e-19        -96.2905151     1.29111673e-19        -96.2905151                  1        -6.29051402
194395349                 1        -6.36590537     1.47199796e-19        -96.3659065     1.47199796e-19        -96.3659065                  1        -6.36590537
196697674                 1        -6.44129659      1.6756336e-19        -96.4412977      1.6756336e-19        -96.4412977                  1        -6.44129659
199000000                 1        -6.51668768     1.90456876e-19        -96.5166888     1.90456876e-19        -96.5166888                  1        -6.51668768
201302326                 1        -6.59207863     2.16159864e-19        -96.5920798     2.16159864e-19        -96.5920798                  1        -6.59207863
203604651                 1        -6.66746944     2.44978973e-19        -96.6674706     2.44978973e-19        -96.6674706                  1        -6.66746944
205906977                 1        -6.74286012     2.77250263e-19        -96.7428613     2.77250263e-19        -96.7428613                  1        -6.74286012
208209302                 1        -6.81825065     3.13341641e-19        -96.8182518     3.13341641e-19        -96.8182518                  1        -6.81825065
210511628                 1        -6.89364104     3.53655477e-19        -96.8936422     3.53655477e-19        -96.8936422                  1        -6.89364104
212813953                 1        -6.96903128     3.98631395e-19        -96.9690325     3.98631395e-19        -96.9690325                  1        -6.96903128
215116279                 1        -7.04442138     4.48749261e-19        -97.0444226     4.48749261e-19        -97.0444226                  1        -7.04442138
217418605                 1        -7.11981133     5.04532369e-19        -97.1198125     5.04532369e-19        -97.1198125                  1        -7.11981133
219720930                 1        -7.19520112     5.66550846e-19        -97.1952024     5.66550846e-19        -97.1952024                  1        -7.19520112
222023256                 1        -7.27059077      6.3542528e-19         -97.270592      6.3542528e-19         -97.270592                  1        -7.27059077
224325581                 1        -7.34598026     7.11830592e-19        -97.3459815     7.11830592e-19        -97.3459815                  1        -7.34598026
226627907                 1        -7.42136959     7.96500151e-19        -97.4213709     7.96500151e-19        -97.4213709                  1        -7.42136959
228930233                 1        -7.49675877      8.9023016e-19        -97.4967601      8.9023016e-19        -97.4967601                  1        -7.49675877
231232558                 1        -7.57214778     9.93884324e-19        -97.5721491     9.93884324e-19        -97.5721491                  1        -7.57214778
233534884                 1        -7.64753664      1.1083988e-18        -97.6475379      1.1083988e-18        -97.6475379                  1        -7.64753664
235837209                 1        -7.72292533     1.23478749e-18        -97.7229267     1.23478749e-18        -97.7229267                  1        -7.72292533
238139535                 1        -7.79831386     1.37414758e-18        -97.7983152     1.37414758e-18        -97.7983152                  1        -7.79831386
240441860                 1        -7.87370222     1.52766553e-18        -97.8737036     1.52766553e-18        -97.8737036                  1        -7.87370222
242744186                 1        -7.94909041     1.69662336e-18        -97.9490918     1.69662336e-18        -97.9490918                  1        -7.94909041
245046512                 1        -8.02447843     1.88240529e-18        -98.0244798     1.88240529e-18        -98.0244798                  1        -8.02447843
247348837                 1        -8.09986627     2.08650482e-18        -98.0998677     2.08650482e-18        -98.0998677                  1        -8.09986627
249651163                 1        -8.17525394     2.31053224e-18        -98.1752553     2.31053224e-18        -98.1752553                  1        -8.17525394
251953488                 1        -8.25064144      2.5562225e-18        -98.2506429      2.5562225e-18        -98.2506429                  1        -8.25064144
254255814                 1        -8.32602876     2.82544364e-18        -98.3260302     2.82544364e-18        -98.3260302                  1        -8.32602876
256558140                 1         -8.4014159     3.12020557e-18        -98.4014173     3.12020557e-18        -98.4014173                  1         -8.4014159
258860465                 1        -8.47680285     3.44266951e-18        -98.4768043     3.44266951e-18        -98.4768043                  1        -8.47680285
261162791                 1        -8.55218963     3.79515779e-18        -98.5521911     3.79515779e-18        -98.5521911                  1        -8.55218963
263465116                 1        -8.62757622     4.18016431e-18        -98.6275777     4.18016431e-18        -98.6275777                  1        -8.62757622
265767442                 1        -8.70296262     4.60036555e-18        -98.7029641     4.60036555e-18        -98.7029641                  1        -8.70296262
268069767                 1        -8.77834883     5.05863215e-18        -98.7783503     5.05863215e-18        -98.7783503                  1        -8.77834883
270372093                 1        -8.85373485     5.55804113e-18        -98.8537364     5.55804113e-18        -98.8537364                  1        -8.85373485
272674419                 1        -8.92912068      6.1018888e-18        -98.9291222      6.1018888e-18        -98.9291222                  1        -8.92912068
274976744                 1        -9.00450632     6.69370429e-18        -99.0045079     6.69370429e-18        -99.0045079                  1        -9.00450632
277279070                 1        -9.07989176     7.33726387e-18        -99.0798933     7.33726387e-18        -99.0798933                  1        -9.07989176
279581395                 1          -9.155277     8.03660592e-18        -99.1552786     8.03660592e-18        -99.1552786                  1          -9.155277
281883721                 1        -9.23066204     8.79604679e-18        -99.2306636     8.79604679e-18        -99.2306636                  1        -9.23066204
284186047                 1        -9.30604688     9.62019738e-18        -99.3060485     9.62019738e-18        -99.3060485                  1        -9.30604688
286488372                 1        -9.38143151     1.05139806e-17        -99.3814331     1.05139806e-17        -99.3814331                  1        -9.38143151
288790698                 1        -9.45681595     1.14826497e-17        -99.4568176     1.14826497e-17        -99.4568176                  1        -9.45681595
291093023                 1        -9.53220017     1.25318076e-17        -99.5322018     1.25318076e-17        -99.5322018                  1        -9.53220017
293395349                 1        -9.60758419     1.36674269e-17        -99.6075858     1.36674269e-17        -99.6075858                  1        -9.60758419
295697674                 1        -9.68296799     1.48958714e-17        -99.6829697     1.48958714e-17        -99.6829697                  1        -9.68296799
298000000                 1        -9.75835159     1.62239181e-17        -99.7583533     1.62239181e-17        -99.7583533                  1        -9.75835159
300302326                 1        -9.83373497     1.76587807e-17        -99.8337367     1.76587807e-17        -99.8337367                  1        -9.83373497
302604651                 1        -9.90911813     1.92081337e-17        -99.9091198     1.92081337e-17        -99.9091198                  1        -9.90911813
304906977                 1        -9.98450108     2.08801384e-17        -99.9845028     2.08801384e-17        -99.9845028                  1        -9.98450108
307209302                 1        -10.0598838     2.26834696e-17        -100.059886     2.26834696e-17        -100.059886                  1        -10.0598838
309511628                 1        -10.1352663     2.46273437e-17        -100.135268     2.46273437e-17        -100.135268                  1        -10.1352663
311813953                 1        -10.2106486     2.67215479e-17         -100.21065     2.67215479e-17         -100.21065                  1        -10.2106486
314116279                 1        -10.2860307     2.89764711e-17        -100.286032     2.89764711e-17        -100.286032                  1        -10.2860307
316418605                 1        -10.3614125     3.14031362e-17        -100.361414     3.14031362e-17        -100.361414                  1        -10.3614125
318720930                 1        -10.4367941     3.40132334e-17        -100.436796     3.40132334e-17        -100.436796                  1        -10.4367941
321023256                 1        -10.5121755     3.68191556e-17        -100.512177     3.68191556e-17        -100.512177                  1        -10.5121755
323325581                 1        -10.5875566     3.98340351e-17        -100.587558     3.98340351e-17        -100.587558                  1        -10.5875566
325627907                 1        -10.6629375     4.30717817e-17        -100.662939     4.30717817e-17        -100.662939                  1        -10.6629375
327930233                 1        -10.7383182     4.65471233e-17         -100.73832     4.65471233e-17         -100.73832                  1        -10.7383182
330232558                 1        -10.8136986      5.0275647e-17          -100.8137      5.0275647e-17          -100.8137                  1        -10.8136986
332534884                 1        -10.8890788     5.42738434e-17        -100.889081     5.42738434e-17        -100.889081                  1        -10.8890788
334837209                 1        -10.9644588     5.85591518e-17        -100.964461     5.85591518e-17        -100.964461                  1        -10.9644588
337139535                 1        -11.0398385     6.31500075e-17         -101.03984     6.31500075e-17         -101.03984                  1        -11.0398385
339441860                 1         -11.115218      6.8065892e-17         -101.11522      6.8065892e-17         -101.11522                  1         -11.115218
341744186                 1        -11.1905972     7.33273836e-17        -101.190599     7.33273836e-17        -101.190599                  1        -11.1905972
344046512                 1        -11.2659762     7.89562123e-17        -101.265978     7.89562123e-17        -101.265978                  1        -11.2659762
346348837                 1        -11.3413549     8.49753149e-17        -101.341357     8.49753149e-17        -101.341357                  1        -11.3413549
348651163                 1        -11.4167334      9.1408894e-17        -101.416735      9.1408894e-17        -101.416735                  1        -11.4167334
350953488                 1        -11.4921116     9.82824784e-17        -101.492114     9.82824784e-17        -101.492114                  1        -11.4921116
353255814                 1        -11.5674896     1.05622987e-16        -101.567492     1.05622987e-16        -101.567492                  1        -11.5674896
355558140                 1        -11.6428673     1.13458792e-16        -101.642869     1.13458792e-16        -101.642869                  1        -11.6428673
357860465                 1        -11.7182448     1.21819793e-16        -101.718247     1.21819793e-16        -101.718247                  1        -11.7182448
360162791                 1         -11.793622     1.30737483e-16        -101.793624     1.30737483e-16        -101.793624                  1         -11.793622
362465116                 1         -11.868999     1.40245023e-16        -101.869001     1.40245023e-16        -101.869001                  1         -11.868999
364767442                 1        -11.9443756     1.50377322e-16        -101.944378     1.50377322e-16        -101.944378                  1        -11.9443756
367069767                 1         -12.019752     1.61171116e-16        -102.019754     1.61171116e-16        -102.019754                  1         -12.019752
369372093                 1        -12.0951282     1.72665049e-16         -102.09513     1.72665049e-16         -102.09513                  1        -12.0951282
371674419                 1        -12.1705041     1.84899761e-16        -102.170506     1.84899761e-16        -102.170506                  1        -12.1705041
373976744                 1        -12.2458797      1.9791798e-16        -102.245882      1.9791798e-16        -102.245882                  1        -12.2458797
376279070                 1         -12.321255      2.1176461e-16        -102.321257      2.1176461e-16        -102.321257                  1         -12.321255
378581395                 1        -12.3966301     2.26486833e-16        -102.396632     2.26486833e-16        -102.396632                  1        -12.3966301
380883721                 1        -12.4720049     2.42134208e-16        -102.472007     2.42134208e-16        -102.472007                  1        -12.4720049
383186047                 1        -12.5473794     2.58758771e-16        -102.547382     2.58758771e-16        -102.547382                  1        -12.5473794
385488372                 1        -12.6227537     2.76415152e-16        -102.622756     2.76415152e-16        -102.622756                  1        -12.6227537
387790698                 1        -12.6981276     2.95160678e-16         -102.69813     2.95160678e-16         -102.69813                  1        -12.6981276
390093023                 1        -12.7735013     3.15055494e-16        -102.773503     3.15055494e-16        -102.773503                  1        -12.7735013
392395349                 1        -12.8488747     3.36162684e-16        -102.848877     3.36162684e-16        -102.848877                  1        -12.8488747
394697674                 1        -12.9242478     3.58548394e-16         -102.92425     3.58548394e-16         -102.92425                  1        -12.9242478
397000000                 1        -12.9996206     3.82281964e-16        -102.999623     3.82281964e-16        -102.999623                  1        -12.9996206
399302326                 1        -13.0749932      4.0743606e-16        -103.074995      4.0743606e-16        -103.074995                  1        -13.0749932
401604651                 1        -13.1503654     4.34086813e-16        -103.150368     4.34086813e-16        -103.150368                  1        -13.1503654
403906977                 1        -13.2257374     4.62313965e-16         -103.22574     4.62313965e-16         -103.22574                  1        -13.2257374
406209302                 1        -13.3011091     4.92201019e-16        -103.301111     4.92201019e-16        -103.301111                  1        -13.3011091
408511628                 1        -13.3764804     5.23835389e-16        -103.376483     5.23835389e-16        -103.376483                  1        -13.3764804
410813953                 1        -13.4518515     5.57308563e-16        -103.451854     5.57308563e-16        -103.451854                  1        -13.4518515
413116279                 1        -13.5272223     5.92716271e-16        -103.527225     5.92716271e-16        -103.527225                  1        -13.5272223
415418605                 1        -13.6025928     6.30158651e-16        -103.602595     6.30158651e-16        -103.602595                  1        -13.6025928
417720930                 1         -13.677963     6.69740427e-16        -103.677965     6.69740427e-16        -103.677965                  1         -13.677963
420023256                 1        -13.7533329     7.11571099e-16        -103.753335     7.11571099e-16        -103.753335                  1        -13.7533329
422325581                 1        -13.8287024     7.55765121e-16        -103.828705     7.55765121e-16        -103.828705                  1        -13.8287024
424627907                 1        -13.9040717     8.02442109e-16        -103.904074     8.02442109e-16        -103.904074                  1        -13.9040717
426930233                 1        -13.9794407     8.51727034e-16        -103.979443     8.51727034e-16        -103.979443                  1        -13.9794407
429232558                 1        -14.0548093     9.03750436e-16        -104.054812     9.03750436e-16        -104.054812                  1        -14.0548093
431534884                 1        -14.1301777     9.58648641e-16         -104.13018     9.58648641e-16         -104.13018                  1        -14.1301777
433837209                 1        -14.2055457     1.01656398e-15        -104.205548     1.01656398e-15        -104.205548                  1        -14.2055457
436139535                 1        -14.2809134     1.07764503e-15        -104.280916     1.07764503e-15        -104.280916                  1        -14.2809134
438441860                 1        -14.3562808     1.14204684e-15        -104.356283     1.14204684e-15        -104.356283                  1        -14.3562808
440744186                 1        -14.4316479     1.20993118e-15         -104.43165     1.20993118e-15         -104.43165                  1        -14.4316479
443046512                 1        -14.5070147      1.2814668e-15        -104.507017      1.2814668e-15        -104.507017                  1        -14.5070147
445348837                 1        -14.5823811      1.3568297e-15        -104.582384      1.3568297e-15        -104.582384                  1        -14.5823811
447651163                 1        -14.6577473     1.43620338e-15         -104.65775     1.43620338e-15         -104.65775                  1        -14.6577473
449953488                 1        -14.7331131     1.51977915e-15        -104.733116     1.51977915e-15        -104.733116                  1        -14.7331131
452255814                 1        -14.8084786     1.60775637e-15        -104.808481     1.60775637e-15        -104.808481                  1        -14.8084786
454558140                 1        -14.8838437      1.7003428e-15        -104.883846      1.7003428e-15        -104.883846                  1        -14.8838437
456860465                 1        -14.9592086     1.79775489e-15        -104.959211     1.79775489e-15        -104.959211                  1        -14.9592086
459162791                 1        -15.0345731     1.90021808e-15        -105.034576     1.90021808e-15        -105.034576                  1        -15.0345731
461465116                 1        -15.1099372     2.00796714e-15         -105.10994     2.00796714e-15         -105.10994                  1        -15.1099372
463767442                 1        -15.1853011     2.12124651e-15        -105.185304     2.12124651e-15        -105.185304                  1        -15.1853011
466069767                 1        -15.2606646     2.24031065e-15        -105.260667     2.24031065e-15        -105.260667                  1        -15.2606646
468372093                 1        -15.3360278     2.36542438e-15         -105.33603     2.36542438e-15         -105.33603                  1        -15.3360278
470674419                 1        -15.4113906     2.49686327e-15        -105.411393     2.49686327e-15        -105.411393                  1        -15.4113906
472976744                 1        -15.4867531       2.634914e-15        -105.486756       2.634914e-15        -105.486756                  1        -15.4867531
475279070                 1        -15.5621153     2.77987477e-15        -105.562118     2.77987477e-15        -105.562118                  1        -15.5621153
477581395                 1        -15.6374771      2.9320557e-15         -105.63748      2.9320557e-15         -105.63748                  1        -15.6374771
479883721                 1        -15.7128386     3.09177923e-15        -105.712841     3.09177923e-15        -105.712841                  1        -15.7128386
482186047                 1        -15.7881997     3.25938057e-15        -105.788202     3.25938057e-15        -105.788202                  1        -15.7881997
484488372                 1        -15.8635605     3.43520814e-15        -105.863563     3.43520814e-15        -105.863563                  1        -15.8635605
486790698                 1        -15.9389209     3.61962399e-15        -105.938924     3.61962399e-15        -105.938924                  1        -15.9389209
489093023                 1         -16.014281     3.81300431e-15        -106.014284     3.81300431e-15        -106.014284                  1         -16.014281
491395349                 1        -16.0896408      4.0157399e-15        -106.089644      4.0157399e-15        -106.089644                  1        -16.0896408
493697674                 1        -16.1650002     4.22823664e-15        -106.165003     4.22823664e-15        -106.165003                  1        -16.1650002
496000000                 1        -16.2403592     4.45091603e-15        -106.240362     4.45091603e-15        -106.240362                  1        -16.2403592
498302326                 1        -16.3157179     4.68421571e-15        -106.315721     4.68421571e-15        -106.315721                  1        -16.3157179
500604651                 1        -16.3910762     4.92858996e-15        -106.391079     4.92858996e-15        -106.391079                  1        -16.3910762
502906977                 1        -16.4664342     5.18451032e-15        -106.466437     5.18451032e-15        -106.466437                  1        -16.4664342
505209302                 1        -16.5417918     5.45246612e-15        -106.541795     5.45246612e-15        -106.541795                  1        -16.5417918
507511628                 1        -16.6171491     5.73296507e-15        -106.617152     5.73296507e-15        -106.617152                  1        -16.6171491
509813953                 1         -16.692506     6.02653386e-15        -106.692509     6.02653386e-15        -106.692509                  1         -16.692506
512116279                 1        -16.7678625      6.3337188e-15        -106.767865      6.3337188e-15        -106.767865                  1        -16.7678625
514418605                 1        -16.8432187     6.65508643e-15        -106.843222     6.65508643e-15        -106.843222                  1        -16.8432187
516720930                 1        -16.9185745     6.99122422e-15        -106.918577     6.99122422e-15        -106.918577                  1        -16.9185745
519023256                 1          -16.99393     7.34274119e-15        -106.993933     7.34274119e-15        -106.993933                  1          -16.99393
521325581                 1         -17.069285     7.71026864e-15        -107.069288     7.71026864e-15        -107.069288                  1         -17.069285