! 2-Port simulation of three lossless lines, impedances 50 Ω / 100 Ω / 50 Ω, each 500 ps in length, port 1 is 50 Ω, port 2 is 100 Ω
[Version] 2.0
# HZ S RI R 50
[Number of Ports] 2
[Number of Frequencies] 2001
[Reference] 50 100
[Network Data]
5.00000000000e+007 +2.42006326651e-001 -1.77411077366e-001 +8.48137765215e-001 -4.36601166633e-001 +8.48137765215e-001 -4.36601166633e-001 -2.85005156765e-001 +9.38819105487e-002
5.49750000000e+007 +2.24813223754e-001 -1.87976364691e-001 +8.28020830008e-001 -4.78022390496e-001 +8.28020830008e-001 -4.78022390496e-001 -2.75205423879e-001 +1.00688002885e-001
5.99500000000e+007 +2.06730903937e-001 -1.96661918256e-001 +8.05880045160e-001 -5.18790686191e-001 +8.05880045160e-001 -5.18790686191e-001 -2.64603914242e-001 +1.06763033407e-001
6.49250000000e+007 +1.87955460870e-001 -2.03361613086e-001 +7.81693950694e-001 -5.58812460939e-001 +7.81693950694e-001 -5.58812460939e-001 -2.53240477641e-001 +1.12037767882e-001
6.99000000000e+007 +1.68697002486e-001 -2.07987377734e-001 +7.55443896742e-001 -5.97985861815e-001 +7.55443896742e-001 -5.97985861815e-001 -2.41160583487e-001 +1.16443123097e-001
7.48750000000e+007 +1.49178438186e-001 -2.10471143235e-001 +7.27115293904e-001 -6.36200472191e-001 +7.27115293904e-001 -6.36200472191e-001 -2.28415761235e-001 +1.19910585746e-001
7.98500000000e+007 +1.29633990544e-001 -2.10766811992e-001 +6.96698977824e-001 -6.73337147169e-001 +6.96698977824e-001 -6.73337147169e-001 -2.15064025945e-001 +1.22372730974e-001
8.48250000000e+007 +1.10307399400e-001 -2.08852210567e-001 +6.64192679592e-001 -7.09268014333e-001 +6.64192679592e-001 -7.09268014333e-001 -2.01170272676e-001 +1.23763846145e-001
8.98000000000e+007 +9.14497894306e-002 -2.04730981043e-001 +6.29602588407e-001 -7.43856667703e-001 +6.29602588407e-001 -7.43856667703e-001 -1.86806621011e-001 +1.24020663327e-001
9.47750000000e+007 +7.33171775207e-002 -1.98434355911e-001 +5.92944986833e-001 -7.76958583493e-001 +5.92944986833e-001 -7.76958583493e-001 -1.72052688714e-001 +1.23083201257e-001
9.97500000000e+007 +5.61676040151e-002 -1.90022751737e-001 +5.54247932071e-001 -8.08421785874e-001 +5.54247932071e-001 -8.08421785874e-001 -1.56995771453e-001 +1.20895714003e-001
1.04725000000e+008 +4.02578823775e-002 -1.79587107840e-001 +5.13552949090e-001 -8.38087789008e-001 +5.13552949090e-001 -8.38087789008e-001 -1.41730904009e-001 +1.17407739288e-001
1.09700000000e+008 +2.58399751489e-002 -1.67249888388e-001 +4.70916693526e-001 -8.65792837968e-001 +4.70916693526e-001 -8.65792837968e-001 -1.26360777495e-001 +1.12575234365e-001
1.14675000000e+008 +1.31570203745e-002 -1.53165660616e-001 +4.26412534266e-001 -8.91369465398e-001 +4.26412534266e-001 -8.91369465398e-001 -1.10995487252e-001 +1.06361781608e-001
1.19650000000e+008 +2.43905168014e-003 -1.37521159191e-001 +3.80131998182e-001 -9.14648372742e-001 +3.80131998182e-001 -9.14648372742e-001 -9.57520874376e-002 +9.87398397288e-002
1.24625000000e+008 -6.10152355249e-003 -1.20534747960e-001 +3.32186013066e-001 -9.35460634483e-001 +3.32186013066e-001 -9.35460634483e-001 -8.07539311439e-002 +8.96920100140e-002
1.29600000000e+008 -1.22746006900e-002 -1.02455196501e-001 +2.82705880267e-001 -9.53640211060e-001 +2.82705880267e-001 -9.53640211060e-001 -6.61297794181e-002 +7.92122805267e-002
1.34575000000e+008 -1.59170986471e-002 -8.35597006979e-002 +2.31843906436e-001 -9.69026741343e-001 +2.31843906436e-001 -9.69026741343e-001 -5.20126689149e-002 +6.73072052786e-002
1.39550000000e+008 -1.68975924811e-002 -6.41510947209e-002 +1.79773625062e-001 -9.81468569108e-001 +1.79773625062e-001 -9.81468569108e-001 -3.85385361064e-002 +5.39969704736e-002
1.44525000000e+008 -1.51207059258e-002 -4.45542263408e-002 +1.26689543673e-001 -9.90825940663e-001 +1.26689543673e-001 -9.90825940663e-001 -2.58446058996e-002 +3.93162966010e-002
1.49500000000e+008 -1.05310973408e-002 -2.51114983330e-002 +7.28063622767e-002 -9.96974293677e-001 +7.28063622767e-002 -9.96974293677e-001 -1.40675638588e-002 +2.33151239930e-002
1.54475000000e+008 -3.11686452889e-003 -6.17761482402e-003 +1.83576229955e-002 -9.99807541434e-001 +1.83576229955e-002 -9.99807541434e-001 -3.34154350072e-003 +6.05903098178e-003
1.59450000000e+008 +7.08780566388e-003 +1.18863886262e-002 -3.64062301153e-002 -9.99241243737e-001 -3.64062301153e-002 -9.99241243737e-001 +6.20402733900e-003 -1.23706616023e-002
1.64425000000e+008 +2.00009066504e-002 +2.87197108189e-002 -9.12203789643e-002 -9.95215546706e-001 -9.12203789643e-002 -9.95215546706e-001 +1.44466651340e-002 -3.18771379340e-002
1.69400000000e+008 +3.54919427512e-002 +4.39687856410e-002 -1.45808718711e-001 -9.87697770290e-001 -1.45808718711e-001 -9.87697770290e-001 +2.12730879450e-002 -5.23487138360e-002
1.74375000000e+008 +5.33824314969e-002 +5.72945203255e-002 -1.99887448194e-001 -9.76684525322e-001 -1.99887448194e-001 -9.76684525322e-001 +2.65814171052e-002 -7.36598555289e-002
1.79350000000e+008 +7.34476457096e-002 +6.83795447003e-002 -2.53169079422e-001 -9.62203252141e-001 -2.53169079422e-001 -9.62203252141e-001 +3.02832445795e-002 -9.56725869382e-002
1.84325000000e+008 +9.54196131624e-002 +7.69352260086e-002 -3.05366756375e-001 -9.44313090307e-001 -3.05366756375e-001 -9.44313090307e-001 +3.23054869157e-002 -1.18238264078e-001
1.89300000000e+008 +1.18991335972e-001 +8.27081977151e-002 -3.56198751868e-001 -9.23105013074e-001 -3.56198751868e-001 -9.23105013074e-001 +3.25919509395e-002 -1.41199676840e-001
1.94275000000e+008 +1.43822134525e-001 +8.54861587970e-002 -4.05392995941e-001 -8.98701190117e-001 -4.05392995941e-001 -8.98701190117e-001 +3.11045452496e-002 -1.64393421371e-001
1.99250000000e+008 +1.69543965747e-001 +8.51027227507e-002 -4.52691481574e-001 -8.71253575470e-001 -4.52691481574e-001 -8.71253575470e-001 +2.78240848187e-002 -1.87652471459e-001
2.04225000000e+008 +1.95768517020e-001 +8.14411320683e-002 -4.97854394621e-001 -8.40941752744e-001 -4.97854394621e-001 -8.40941752744e-001 +2.27506528686e-002 -2.10808866139e-001
2.09200000000e+008 +2.22094838783e-001 +7.44367021025e-002 -5.40663824740e-001 -8.07970103768e-001 -5.40663824740e-001 -8.07970103768e-001 +1.59035035700e-002 -2.33696424038e-001
2.14175000000e+008 +2.48117253845e-001 +6.40779148179e-002 -5.80926932479e-001 -7.72564397508e-001 -5.80926932479e-001 -7.72564397508e-001 +7.32050967864e-003 -2.56153393421e-001
2.19150000000e+008 +2.73433271464e-001 +5.04061439093e-002 -6.18478473057e-001 -7.34967921121e-001 -6.18478473057e-001 -7.34967921121e-001 -2.94282051336e-003 -2.78024950490e-001
2.24125000000e+008 +2.97651239952e-001 +3.35140537628e-002 -6.53182608065e-001 -6.95437292700e-001 -6.53182608065e-001 -6.95437292700e-001 -1.48147139960e-002 -2.99165467081e-001
2.29100000000e+008 +3.20397492046e-001 +1.35427714553e-002 -6.84933969849e-001 -6.54238104500e-001 -6.84933969849e-001 -6.54238104500e-001 -2.82088331668e-002 -3.19440481622e-001
2.34075000000e+008 +3.41322770559e-001 -9.32202034028e-003 -7.13657977392e-001 -6.11640546023e-001 -7.13657977392e-001 -6.11640546023e-001 -4.30262352011e-002 -3.38728323070e-001
2.39050000000e+008 +3.60107764843e-001 -3.48548839473e-002 -7.39310434626e-001 -5.67915148607e-001 -7.39310434626e-001 -5.67915148607e-001 -5.91575135281e-002 -3.56921355243e-001
2.44025000000e+008 +3.76467637780e-001 -6.27961101664e-002 -7.61876470285e-001 -5.23328778377e-001 -7.61876470285e-001 -5.23328778377e-001 -7.64850418777e-002 -3.73926827223e-001
2.49000000000e+008 +3.90155474554e-001 -9.28576623485e-002 -7.81368901133e-001 -4.78140983979e-001 -7.81368901133e-001 -4.78140983979e-001 -9.48852434133e-002 -3.89667332944e-001
2.53975000000e+008 +4.00964634725e-001 -1.24729359852e-001 -7.97826116598e-001 -4.32600781513e-001 -7.97826116598e-001 -4.32600781513e-001 -1.14230813397e-001 -4.04080898806e-001
2.58950000000e+008 +4.08730035034e-001 -1.58085092071e-001 -8.11309592336e-001 -3.86943933289e-001 -8.11309592336e-001 -3.86943933289e-001 -1.34392832821e-001 -4.17120731157e-001
2.63925000000e+008 +4.13328429525e-001 -1.92588875755e-001 -8.21901143163e-001 -3.41390751411e-001 -8.21901143163e-001 -3.41390751411e-001 -1.55242721566e-001 -4.28754665419e-001
2.68900000000e+008 +4.14677784476e-001 -2.27900596425e-001 -8.29700022813e-001 -2.96144433266e-001 -8.29700022813e-001 -2.96144433266e-001 -1.76653991898e-001 -4.38964365223e-001
2.73875000000e+008 +4.12735867591e-001 -2.63681306743e-001 -8.34819970246e-001 -2.51389914988e-001 -8.34819970246e-001 -2.51389914988e-001 -1.98503775627e-001 -4.47744323229e-001
2.78850000000e+008 +4.07498183936e-001 -2.99597988078e-001 -8.37386290806e-001 -2.07293211657e-001 -8.37386290806e-001 -2.07293211657e-001 -2.20674110191e-001 -4.55100715736e-001
2.83825000000e+008 +3.98995396069e-001 -3.35327714184e-001 -8.37533046793e-001 -1.64001199829e-001 -8.37533046793e-001 -1.64001199829e-001 -2.43052979758e-001 -4.61050161062e-001
2.88800000000e+008 +3.87290363590e-001 -3.70561186079e-001 -8.35400417064e-001 -1.21641788922e-001 -8.35400417064e-001 -1.21641788922e-001 -2.65535116646e-001 -4.65618427669e-001
2.93775000000e+008 +3.72474929621e-001 -4.05005633615e-001 -8.31132270239e-001 -8.03244228802e-002 -8.31132270239e-001 -8.03244228802e-002 -2.88022575829e-001 -4.68839132613e-001
2.98750000000e+008 +3.54666569751e-001 -4.38387101285e-001 -8.24873981735e-001 -4.01408518086e-002 -8.24873981735e-001 -4.01408518086e-002 -3.10425100873e-001 -4.70752464699e-001
3.03725000000e+008 +3.34005004316e-001 -4.70452153024e-001 -8.16770511823e-001 -1.16611444775e-003 -8.16770511823e-001 -1.16611444775e-003 -3.32660303442e-001 -4.71403960216e-001
3.08700000000e+008 +3.10648858849e-001 -5.00969043394e-001 -8.06964750630e-001 +3.65403242718e-002 -8.06964750630e-001 +3.65403242718e-002 -3.54653680688e-001 -4.70843352632e-001
3.13675000000e+008 +2.84772441141e-001 -5.29728410804e-001 -7.95596126640e-001 +7.29333313946e-002 -7.95596126640e-001 +7.29333313946e-002 -3.76338495617e-001 -4.69123511629e-001
3.18650000000e+008 +2.56562687557e-001 -5.56543552885e-001 -7.82799467887e-001 +1.07980804650e-001 -7.82799467887e-001 +1.07980804650e-001 -3.97655545175e-001 -4.66299481338e-001
3.23625000000e+008 +2.26216316584e-001 -5.81250345412e-001 -7.68704099536e-001 +1.41662350061e-001 -7.68704099536e-001 +1.41662350061e-001 -4.18552839557e-001 -4.62427622910e-001
3.28600000000e+008 +1.93937214607e-001 -6.03706864953e-001 -7.53433157835e-001 +1.73967970250e-001 -7.53433157835e-001 +1.73967970250e-001 -4.38985214434e-001 -4.57564862626e-001
3.33575000000e+008 +1.59934067642e-001 -6.23792772207e-001 -7.37103098119e-001 +2.04896788882e-001 -7.37103098119e-001 +2.04896788882e-001 -4.58913895505e-001 -4.51768043538e-001
3.38550000000e+008 +1.24418243477e-001 -6.41408508578e-001 -7.19823373616e-001 +2.34455830829e-001 -7.19823373616e-001 +2.34455830829e-001 -4.78306032394e-001 -4.45093376228e-001
3.43525000000e+008 +8.76019211828e-002 -6.56474353190e-001 -7.01696261787e-001 +2.62658872311e-001 -7.01696261787e-001 +2.62658872311e-001 -4.97134216358e-001 -4.37595982519e-001
3.48500000000e+008 +4.96964591830e-002 -6.68929381823e-001 -6.82816815710e-001 +2.89525370671e-001 -6.82816815710e-001 +2.89525370671e-001 -5.15375993886e-001 -4.29329524780e-001
3.53475000000e+008 +1.09109888979e-002 -6.78730363485e-001 -6.63272919381e-001 +3.15079479529e-001 -6.63272919381e-001 +3.15079479529e-001 -5.33013385932e-001 -4.20345912806e-001
3.58450000000e+008 -2.85487819401e-002 -6.85850624650e-001 -6.43145427487e-001 +3.39349151787e-001 -6.43145427487e-001 +3.39349151787e-001 -5.50032420470e-001 -4.10695079975e-001
3.63425000000e+008 -6.84815739418e-002 -6.90278905943e-001 -6.22508372123e-001 +3.62365330403e-001 -6.22508372123e-001 +3.62365330403e-001 -5.66422684178e-001 -4.00424820420e-001
3.68400000000e+008 -1.08691367184e-001 -6.92018231147e-001 -6.01429220947e-001 +3.84161224815e-001 -6.01429220947e-001 +3.84161224815e-001 -5.82176897438e-001 -3.89580679230e-001
3.73375000000e+008 -1.48988077429e-001 -6.91084804133e-001 -5.79969173274e-001 +4.04771669380e-001 -5.79969173274e-001 +4.04771669380e-001 -5.97290515488e-001 -3.78205888145e-001
3.78350000000e+008 -1.89188095639e-001 -6.87506945460e-001 -5.58183482520e-001 +4.24232559164e-001 -5.58183482520e-001 +4.24232559164e-001 -6.11761357374e-001 -3.66341339751e-001
3.83325000000e+008 -2.29114708207e-001 -6.81324077179e-001 -5.36121795252e-001 +4.42580357670e-001 -5.36121795252e-001 +4.42580357670e-001 -6.25589263475e-001 -3.54025593828e-001
3.88300000000e+008 -2.68598414179e-001 -6.72585761593e-001 -5.13828498754e-001 +4.59851670729e-001 -5.13828498754e-001 +4.59851670729e-001 -6.38775781569e-001 -3.41294910126e-001
3.93275000000e+008 -3.07477154556e-001 -6.61350797457e-001 -4.91343070509e-001 +4.76082880590e-001 -4.91343070509e-001 +4.76082880590e-001 -6.51323880888e-001 -3.28183302526e-001
3.98250000000e+008 -3.45596467373e-001 -6.47686375257e-001 -4.68700424348e-001 +4.91309834281e-001 -4.68700424348e-001 +4.91309834281e-001 -6.63237693148e-001 -3.14722610154e-001
4.03225000000e+008 -3.82809580896e-001 -6.31667291705e-001 -4.45931249150e-001 +5.05567580444e-001 -4.45931249150e-001 +5.05567580444e-001 -6.74522279245e-001 -3.00942581629e-001
4.08200000000e+008 -4.18977455944e-001 -6.13375222463e-001 -4.23062337008e-001 +5.18890149149e-001 -4.23062337008e-001 +5.18890149149e-001 -6.85183420091e-001 -2.86870969172e-001
4.13175000000e+008 -4.53968787038e-001 -5.92898051227e-001 -4.00116898591e-001 +5.31310369472e-001 -4.00116898591e-001 +5.31310369472e-001 -6.95227429957e-001 -2.72533629831e-001
4.18150000000e+008 -4.87659970861e-001 -5.70329252649e-001 -3.77114864181e-001 +5.42859720007e-001 -3.77114864181e-001 +5.42859720007e-001 -7.04660990609e-001 -2.57954631517e-001
4.23125000000e+008 -5.19935049420e-001 -5.45767326149e-001 -3.54073169433e-001 +5.53568207885e-001 -3.54073169433e-001 +5.53568207885e-001 -7.13491004531e-001 -2.43156361958e-001
4.28100000000e+008 -5.50685634236e-001 -5.19315277376e-001 -3.31006025392e-001 +5.63464272233e-001 -3.31006025392e-001 +5.63464272233e-001 -7.21724465552e-001 -2.28159639055e-001
4.33075000000e+008 -5.79810817010e-001 -4.91080143895e-001 -3.07925172723e-001 +5.72574708448e-001 -3.07925172723e-001 +5.72574708448e-001 -7.29368345258e-001 -2.12983821416e-001
4.38050000000e+008 -6.07217071368e-001 -4.61172561633e-001 -2.84840120374e-001 +5.80924609964e-001 -2.84840120374e-001 +5.80924609964e-001 -7.36429493649e-001 -1.97646918132e-001
4.43025000000e+008 -6.32818149583e-001 -4.29706368610e-001 -2.61758369193e-001 +5.88537324638e-001 -2.61758369193e-001 +5.88537324638e-001 -7.42914552602e-001 -1.82165697093e-001
4.48000000000e+008 -6.56534977521e-001 -3.96798242550e-001 -2.38685621169e-001 +5.95434423130e-001 -2.38685621169e-001 +5.95434423130e-001 -7.48829880798e-001 -1.66555791323e-001
4.52975000000e+008 -6.78295550529e-001 -3.62567369063e-001 -2.15625975132e-001 +6.01635677027e-001 -2.15625975132e-001 +6.01635677027e-001 -7.54181488884e-001 -1.50831803013e-001
4.57950000000e+008 -6.98034832504e-001 -3.27135137222e-001 -1.92582109848e-001 +6.07159044710e-001 -1.92582109848e-001 +6.07159044710e-001 -7.58974983761e-001 -1.35007405049e-001
4.62925000000e+008 -7.15694659979e-001 -2.90624859495e-001 -1.69555455521e-001 +6.12020663233e-001 -1.69555455521e-001 +6.12020663233e-001 -7.63215520978e-001 -1.19095439950e-001
4.67900000000e+008 -7.31223652717e-001 -2.53161513149e-001 -1.46546354769e-001 +6.16234844739e-001 -1.46546354769e-001 +6.16234844739e-001 -7.66907764348e-001 -1.03108016252e-001
4.72875000000e+008 -7.44577132023e-001 -2.14871500375e-001 -1.23554214167e-001 +6.19814076120e-001 -1.23554214167e-001 +6.19814076120e-001 -7.70055851987e-001 -8.70566024237e-002
4.77850000000e+008 -7.55717047733e-001 -1.75882424552e-001 -1.00577647487e-001 +6.22769020845e-001 -1.00577647487e-001 +6.22769020845e-001 -7.72663368086e-001 -7.09521185010e-002
4.82825000000e+008 -7.64611914657e-001 -1.36322880162e-001 -7.76146117461e-002 +6.25108522060e-001 -7.76146117461e-002 +6.25108522060e-001 -7.74733319831e-001 -5.48050256358e-002
4.87800000000e+008 -7.71236759042e-001 -9.63222540274e-002 -5.46625372170e-002 +6.26839606204e-001 -5.46625372170e-002 +6.26839606204e-001 -7.76268118967e-001 -3.86254138455e-002
4.92775000000e+008 -7.75573075540e-001 -5.60105356179e-002 -3.17184525141e-002 +6.27967486552e-001 -3.17184525141e-002 +6.27967486552e-001 -7.77269567600e-001 -2.24230882448e-002
4.97750000000e+008 -7.77608794991e-001 -1.55181342700e-002 -8.77910589227e-003 +6.28495566222e-001 -8.77910589227e-003 +6.28495566222e-001 -7.77738847924e-001 -6.20765408920e-003
5.02725000000e+008 -7.77338263267e-001 +2.50242987705e-002 +1.41589161201e-002 +6.28425440308e-001 +1.41589161201e-002 +6.28425440308e-001 -7.77676515627e-001 +1.00113990350e-002
5.07700000000e+008 -7.74762231324e-001 +6.54860455248e-002 +3.70990716340e-002 +6.27756896926e-001 +3.70990716340e-002 +6.27756896926e-001 -7.77082496838e-001 +2.62246135168e-002
5.12675000000e+008 -7.69887856525e-001 +1.05736495689e-001 +6.00447467399e-002 +6.26487917078e-001 +6.00447467399e-002 +6.26487917078e-001 -7.75956088526e-001 +4.24224801667e-002
5.17650000000e+008 -7.62728715223e-001 +1.45645322280e-001 +8.29991381581e-002 +6.24614673328e-001 +8.29991381581e-002 +6.24614673328e-001 -7.74295962385e-001 +5.85953544386e-002
5.22625000000e+008 -7.53304826533e-001 +1.85082660543e-001 +1.05965134082e-001 +6.22131527450e-001 +1.05965134082e-001 +6.22131527450e-001 -7.72100172264e-001 +7.47333720707e-002
5.27600000000e+008 -7.41642687102e-001 +2.23919292158e-001 +1.28945192090e-001 +6.19031027255e-001 +1.28945192090e-001 +6.19031027255e-001 -7.69366165342e-001 +9.08263637932e-002
5.32575000000e+008 -7.27775316648e-001 +2.62026836868e-001 +1.51941213008e-001 +6.15303902985e-001 +1.51941213008e-001 +6.15303902985e-001 -7.66090797285e-001 +1.06863768769e-001
5.37550000000e+008 -7.11742313883e-001 +2.99277953692e-001 +1.74954409587e-001 +6.10939063761e-001 +1.74954409587e-001 +6.10939063761e-001 -7.62270351736e-001 +1.22834546448e-001
5.42525000000e+008 -6.93589922355e-001 +3.35546553991e-001 +1.97985168862e-001 +6.05923594707e-001 +1.97985168862e-001 +6.05923594707e-001 -7.57900564550e-001 +1.38727086550e-001
5.47500000000e+008 -6.73371105565e-001 +3.70708028771e-001 +2.21032907073e-001 +6.00242755547e-001 +2.21032907073e-001 +6.00242755547e-001 -7.52976653310e-001 +1.54529116913e-001
5.52475000000e+008 -6.51145630558e-001 +4.04639492705e-001 +2.44095916006e-001 +5.93879981594e-001 +2.44095916006e-001 +5.93879981594e-001 -7.47493352733e-001 +1.70227609015e-001
5.57450000000e+008 -6.26980158977e-001 +4.37220047517e-001 +2.67171199649e-001 +5.86816888285e-001 +2.67171199649e-001 +5.86816888285e-001 -7.41444956669e-001 +1.85808680994e-001
5.62425000000e+008 -6.00948344300e-001 +4.68331067493e-001 +2.90254300060e-001 +5.79033280564e-001 +2.90254300060e-001 +5.79033280564e-001 -7.34825367522e-001 +2.01257498100e-001
5.67400000000e+008 -5.73130933691e-001 +4.97856510054e-001 +3.13339111410e-001 +5.70507168670e-001 +3.13339111410e-001 +5.70507168670e-001 -7.27628154015e-001 +2.16558170573e-001
5.72375000000e+008 -5.43615872557e-001 +5.25683254454e-001 +3.36417681184e-001 +5.61214792106e-001 +3.36417681184e-001 +5.61214792106e-001 -7.19846618316e-001 +2.31693649044e-001
5.77350000000e+008 -5.12498409439e-001 +5.51701471812e-001 +3.59479997638e-001 +5.51130653858e-001 +3.59479997638e-001 +5.51130653858e-001 -7.11473873691e-001 +2.46645617701e-001
5.82325000000e+008 -4.79881198435e-001 +5.75805029819e-001 +3.82513762712e-001 +5.40227567197e-001 +3.82513762712e-001 +5.40227567197e-001 -7.02502933919e-001 +2.61394385577e-001
5.87300000000e+008 -4.45874395733e-001 +5.97891935536e-001 +4.05504149748e-001 +5.28476717735e-001 +4.05504149748e-001 +5.28476717735e-001 -6.92926815841e-001 +2.75918776524e-001
5.92275000000e+008 -4.10595746216e-001 +6.17864819771e-001 +4.28433545573e-001 +5.15847743726e-001 +4.28433545573e-001 +5.15847743726e-001 -6.82738656508e-001 +2.90196018633e-001
5.97250000000e+008 -3.74170655340e-001 +6.35631466488e-001 +4.51281276768e-001 +5.02308837998e-001 +4.51281276768e-001 +5.02308837998e-001 -6.71931846494e-001 +3.04201634078e-001
6.02225000000e+008 -3.36732240650e-001 +6.51105390654e-001 +4.74023320268e-001 +4.87826875243e-001 +4.74023320268e-001 +4.87826875243e-001 -6.60500180988e-001 +3.17909330702e-001
6.07200000000e+008 -2.98421356348e-001 +6.64206467684e-001 +4.96631998865e-001 +4.72367568812e-001 +4.96631998865e-001 +4.72367568812e-001 -6.48438030388e-001 +3.31290896925e-001
6.12175000000e+008 -2.59386583302e-001 +6.74861617376e-001 +5.19075662672e-001 +4.55895661547e-001 +5.19075662672e-001 +4.55895661547e-001 -6.35740532082e-001 +3.44316101965e-001
6.17150000000e+008 -2.19784175703e-001 +6.83005544702e-001 +5.41318358262e-001 +4.38375155575e-001 +5.41318358262e-001 +4.38375155575e-001 -6.22403805129e-001 +3.56952603778e-001
6.22125000000e+008 -1.79777954390e-001 +6.88581539149e-001 +5.63319487907e-001 +4.19769586325e-001 +5.63319487907e-001 +4.19769586325e-001 -6.08425189452e-001 +3.69165867573e-001
6.27100000000e+008 -1.39539135527e-001 +6.91542333359e-001 +5.85033462237e-001 +4.00042346374e-001 +5.85033462237e-001 +4.00042346374e-001 -5.93803511030e-001 +3.80919098312e-001
6.32075000000e+008 -9.92460819612e-002 +6.91851020608e-001 +6.06409350690e-001 +3.79157064942e-001 +6.06409350690e-001 +3.79157064942e-001 -5.78539374327e-001 +3.92173191147e-001
6.37050000000e+008 -5.90839632359e-002 +6.89482029092e-001 +6.27390535300e-001 +3.57078048981e-001 +6.27390535300e-001 +3.57078048981e-001 -5.62635482886e-001 +4.02886704360e-001
6.42025000000e+008 -1.92443088982e-002 +6.84422149039e-001 +6.47914374754e-001 +3.33770791813e-001 +6.47914374754e-001 +3.33770791813e-001 -5.46096988536e-001 +4.13015860024e-001
6.47000000000e+008 +2.00755614849e-002 +6.76671606284e-001 +6.67911887190e-001 +3.09202555019e-001 +6.67911887190e-001 +3.09202555019e-001 -5.28931869052e-001 +4.22514578236e-001
6.51975000000e+008 +5.86732492170e-002 +6.66245173087e-001 +6.87307461890e-001 +2.83343028846e-001 +6.87307461890e-001 +2.83343028846e-001 -5.11151333326e-001 +4.31334551449e-001
6.56950000000e+008 +9.63421466176e-002 +6.53173303552e-001 +7.06018611907e-001 +2.56165075592e-001 +7.06018611907e-001 +2.56165075592e-001 -4.92770252139e-001 +4.39425366012e-001
6.61925000000e+008 +1.32872485072e-001 +6.37503277140e-001 +7.23955781577e-001 +2.27645559297e-001 +7.23955781577e-001 +2.27645559297e-001 -4.73807611390e-001 +4.46734678576e-001
6.66900000000e+008 +1.68052579357e-001 +6.19300329250e-001 +7.41022224915e-001 +1.97766263414e-001 +7.41022224915e-001 +1.97766263414e-001 -4.54286983259e-001 +4.53208455437e-001
6.71875000000e+008 +2.01670285562e-001 +5.98648742929e-001 +7.57113972871e-001 +1.66514896015e-001 +7.57113972871e-001 +1.66514896015e-001 -4.34237009051e-001 +4.58791283111e-001
6.76850000000e+008 +2.33514687931e-001 +5.75652870342e-001 +7.72119909321e-001 +1.33886179341e-001 +7.72119909321e-001 +1.33886179341e-001 -4.13691885597e-001 +4.63426758403e-001
6.81825000000e+008 +2.63378026768e-001 +5.50438046974e-001 +7.85921977269e-001 +9.98830170958e-002 +7.85921977269e-001 +9.98830170958e-002 -3.92691844914e-001 +4.67057965866e-001
6.86800000000e+008 +2.91057875002e-001 +5.23151355693e-001 +7.98395538003e-001 +6.45177288203e-002 +7.98395538003e-001 +6.45177288203e-002 -3.71283614517e-001 +4.69628049796e-001
6.91775000000e+008 +3.16359564844e-001 +4.93962192178e-001 +8.09409906523e-001 +2.78133358861e-002 +8.09409906523e-001 +2.78133358861e-002 -3.49520843298e-001 +4.71080886547e-001
6.96750000000e+008 +3.39098858101e-001 +4.63062578049e-001 +8.18829086401e-001 -1.01951217868e-002 +8.18829086401e-001 -1.01951217868e-002 -3.27464475400e-001 +4.71361861107e-001
7.01725000000e+008 +3.59104843918e-001 +4.30667163823e-001 +8.26512725955e-001 -4.94592651934e-002 +8.26512725955e-001 -4.94592651934e-002 -3.05183052110e-001 +4.70418749229e-001
7.06700000000e+008 +3.76223036094e-001 +3.97012861049e-001 +8.32317315027e-001 -8.99160852119e-002 +8.32317315027e-001 -8.99160852119e-002 -2.82752919605e-001 +4.68202703090e-001
7.11675000000e+008 +3.90318628658e-001 +3.62358042279e-001 +8.36097637556e-001 -1.31486720970e-001 +8.36097637556e-001 -1.31486720970e-001 -2.60258318698e-001 +4.64669334291e-001
7.16650000000e+008 +4.01279853463e-001 +3.26981249491e-001 +8.37708489184e-001 -1.74075353898e-001 +8.37708489184e-001 -1.74075353898e-001 -2.37791331674e-001 +4.59779883090e-001
7.21625000000e+008 +4.09021367525e-001 +2.91179356875e-001 +8.37006661339e-001 -2.17568269544e-001 +8.37006661339e-001 -2.17568269544e-001 -2.15451661183e-001 +4.53502457166e-001
7.26600000000e+008 +4.13487581455e-001 +2.55265143180e-001 +8.33853183381e-001 -2.61833143863e-001 +8.33853183381e-001 -2.61833143863e-001 -1.93346217267e-001 +4.45813316994e-001
7.31575000000e+008 +4.14655824488e-001 +2.19564242442e-001 +8.28115802723e-001 -3.06718613617e-001 +8.28115802723e-001 -3.06718613617e-001 -1.71588491098e-001 +4.36698178452e-001
7.36550000000e+008 +4.12539227482e-001 +1.84411460323e-001 +8.19671669422e-001 -3.52054191052e-001 +8.19671669422e-001 -3.52054191052e-001 -1.50297698253e-001 +4.26153496770e-001
7.41525000000e+008 +4.07189194145e-001 +1.50146466368e-001 +8.08410177179e-001 -3.97650580588e-001 +8.08410177179e-001 -3.97650580588e-001 -1.29597680316e-001 +4.14187689880e-001
7.46500000000e+008 +3.98697324159e-001 +1.17108899883e-001 +7.94235897588e-001 -4.43300449199e-001 +7.94235897588e-001 -4.43300449199e-001 -1.09615561525e-001 +4.00822254116e-001
7.51475000000e+008 +3.87196651260e-001 +8.56329580026e-002 +7.77071529682e-001 -4.88779692208e-001 +7.77071529682e-001 -4.88779692208e-001 -9.04801667806e-002 +3.86092721588e-001
7.56450000000e+008 +3.72862066070e-001 +5.60415675499e-002 +7.56860773557e-001 -5.33849222012e-001 +7.56860773557e-001 -5.33849222012e-001 -7.23202184705e-002 +3.70049406982e-001
7.61425000000e+008 +3.55909808558e-001 +2.86402755496e-002 +7.33571026161e-001 -5.78257289073e-001 +7.33571026161e-001 -5.78257289073e-001 -5.52623416939e-002 +3.52757892615e-001
7.66400000000e+008 +3.36595939119e-001 +3.71102463856e-003 +7.07195790602e-001 -6.21742322687e-001 +7.07195790602e-001 -6.21742322687e-001 -3.94289200028e-002 +3.34299204610e-001
7.71375000000e+008 +3.15213730149e-001 -1.84939936168e-002 +6.77756688682e-001 -6.64036254638e-001 +6.77756688682e-001 -6.64036254638e-001 -2.49358558494e-002 +3.14769640479e-001
7.76350000000e+008 +2.92089960923e-001 -3.77581948627e-002 +6.45304970745e-001 -7.04868262997e-001 +6.45304970745e-001 -7.04868262997e-001 -1.18903006382e-002 +2.94280219012e-001
7.81325000000e+008 +2.67580145774e-001 -5.39059450175e-002 +6.09922427996e-001 -7.43968847807e-001 +6.09922427996e-001 -7.43968847807e-001 -3.88427635758e-004 +2.72955737153e-001
7.86300000000e+008 +2.42062776404e-001 -6.68071695057e-002 +5.71721630238e-001 -7.81074127020e-001 +5.71721630238e-001 -7.81074127020e-001 +9.48667392114e-003 +2.50933434671e-001
7.91275000000e+008 +2.15932710506e-001 -7.63810227334e-002 +5.30845436088e-001 -8.15930221823e-001 +5.30845436088e-001 -8.15930221823e-001 +1.76669041339e-002 +2.28361285244e-001
7.96250000000e+008 +1.89593886941e-001 -8.25984399607e-002 +4.87465751968e-001 -8.48297587176e-001 +4.87465751968e-001 -8.48297587176e-001 +2.41007812653e-002 +2.05395950768e-001
8.01225000000e+008 +1.63451588768e-001 -8.54834342264e-002 +4.41781548974e-001 -8.77955137571e-001 +4.41781548974e-001 -8.77955137571e-001 +2.87547263445e-002 +1.82200453103e-001
8.06200000000e+008 +1.37904505918e-001 -8.51130518388e-002 +3.94016180839e-001 -9.04704020601e-001 +3.94016180839e-001 -9.04704020601e-001 +3.16139484142e-002 +1.58941632719e-001
8.11175000000e+008 +1.13336866482e-001 -8.16159580282e-002 +3.44414079339e-001 -9.28370902196e-001 +3.44414079339e-001 -9.28370902196e-001 +3.26828916235e-002 +1.35787475505e-001
8.16150000000e+008 +9.01109076248e-002 -7.51696857520e-002 +2.93236933071e-001 -9.48810646944e-001 +2.93236933071e-001 -9.48810646944e-001 +3.19852244401e-002 +1.12904396489e-001
8.21125000000e+008 +6.85599435243e-002 -6.59966409737e-002 +2.40759479487e-001 -9.65908303392e-001 +2.40759479487e-001 -9.65908303392e-001 +2.95633717183e-002 +9.04545716285e-002
8.26100000000e+008 +4.89822594368e-002 -5.43590126843e-002 +1.87265056463e-001 -9.79580335975e-001 +1.87265056463e-001 -9.79580335975e-001 +2.54776107783e-002 +6.85934060138e-002
8.31075000000e+008 +3.16360199838e-002 -4.05527816243e-002 +1.33041067619e-001 -9.89775079737e-001 +1.33041067619e-001 -9.89775079737e-001 +1.98047715544e-002 +4.74672190208e-002
8.36050000000e+008 +1.67353293942e-002 -2.49010550931e-002 +7.83745145061e-002 -9.96472428962e-001 +7.83745145061e-002 -9.96472428962e-001 +1.26365969706e-002 +2.72112148146e-002
8.41025000000e+008 +4.44752550363e-003 -7.74697456747e-003 +2.35477392788e-002 -9.99682803632e-001 +2.35477392788e-002 -9.99682803632e-001 +4.07783198677e-003 +7.94779116121e-003
8.46000000000e+008 -5.10826798941e-003 +1.05535524945e-002 -3.11654954718e-002 -9.99445466256e-001 -3.11654954718e-002 -9.99445466256e-001 -5.75588242351e-003 -1.02147780021e-002
8.50975000000e+008 -1.18613612100e-002 +2.96390546094e-002 -8.55034856798e-002 -9.95826284293e-001 -8.55034856798e-002 -9.95826284293e-001 -1.67402309611e-002 -2.71832690319e-002
8.55950000000e+008 -1.57885685716e-002 +4.91494114561e-002 -1.39219545901e-001 -9.88915049180e-001 -1.39219545901e-001 -9.88915049180e-001 -2.87444833269e-002 -4.28800445696e-002
8.60925000000e+008 -1.69122488131e-002 +6.87322929095e-002 -1.92084400905e-001 -9.78822471483e-001 -1.92084400905e-001 -9.78822471483e-001 -4.16337185210e-002 -5.72432155861e-002
8.65900000000e+008 -1.52974630252e-002 +8.80489702354e-002 -2.43887986801e-001 -9.65676973092e-001 -2.43887986801e-001 -9.65676973092e-001 -5.52709500209e-002 -7.02264595314e-002