! Simulation of a Chebyshev LPF, 4 GHz
# hz S ma R 50
100000000       0.056731763         76.5994557        0.998389457        -13.4005444        0.998389457        -13.4005444        0.056731763         76.5994557
102302326      0.0580128891         76.2915334        0.998315834        -13.7084666        0.998315834        -13.7084666       0.0580128891         76.2915334
104604651      0.0592923215         75.9836515        0.998240663        -14.0163485        0.998240663        -14.0163485       0.0592923215         75.9836515
106906977      0.0605700237         75.6758109        0.998163951        -14.3241892        0.998163951        -14.3241892       0.0605700237         75.6758109
109209302      0.0618459595         75.3680123        0.998085706        -14.6319878        0.998085706        -14.6319878       0.0618459595         75.3680123
111511628      0.0631200926         75.0602566        0.998005939        -14.9397435        0.998005939        -14.9397435       0.0631200926         75.0602566
113813953      0.0643923869         74.7525446        0.997924657        -15.2474555        0.997924657        -15.2474555       0.0643923869         74.7525446
116116279      0.0656628063          74.444877        0.997841869         -15.555123        0.997841869         -15.555123       0.0656628063          74.444877
118418605      0.0669313151         74.1372548        0.997757585        -15.8627452        0.997757585        -15.8627452       0.0669313151         74.1372548
120720930      0.0681978773         73.8296787        0.997671815        -16.1703213        0.997671815        -16.1703213       0.0681978773         73.8296787
123023256      0.0694624575         73.5221496        0.997584566        -16.4778505        0.997584566        -16.4778505       0.0694624575         73.5221496
125325581      0.0707250199          73.214668         0.99749585         -16.785332         0.99749585         -16.785332       0.0707250199          73.214668
127627907      0.0719855293          72.907235        0.997405677         -17.092765        0.997405677         -17.092765       0.0719855293          72.907235
129930233      0.0732439504         72.5998512        0.997314055        -17.4001488        0.997314055        -17.4001488       0.0732439504         72.5998512
132232558       0.074500248         72.2925175        0.997220995        -17.7074826        0.997220995        -17.7074826        0.074500248         72.2925175
134534884       0.075754387         71.9852345        0.997126508        -18.0147656        0.997126508        -18.0147656        0.075754387         71.9852345
136837209      0.0770063326          71.678003        0.997030604         -18.321997        0.997030604         -18.321997       0.0770063326          71.678003
139139535      0.0782560501         71.3708238        0.996933293        -18.6291762        0.996933293        -18.6291762       0.0782560501         71.3708238
141441860      0.0795035048         71.0636977        0.996834586        -18.9363023        0.996834586        -18.9363023       0.0795035048         71.0636977
143744186      0.0807486621         70.7566254        0.996734495        -19.2433747        0.996734495        -19.2433747       0.0807486621         70.7566254
146046512      0.0819914878         70.4496075         0.99663303        -19.5503925         0.99663303        -19.5503925       0.0819914878         70.4496075
148348837      0.0832319477         70.1426449        0.996530202        -19.8573552        0.996530202        -19.8573552       0.0832319477         70.1426449
150651163      0.0844700077         69.8357382        0.996426022        -20.1642619        0.996426022        -20.1642619       0.0844700077         69.8357382
152953488      0.0857056337         69.5288881        0.996320503        -20.4711119        0.996320503        -20.4711119       0.0857056337         69.5288881
155255814      0.0869387922         69.2220955        0.996213655        -20.7779046        0.996213655        -20.7779046       0.0869387922         69.2220955
157558140      0.0881694493         68.9153609        0.996105491        -21.0846392        0.996105491        -21.0846392       0.0881694493         68.9153609
159860465      0.0893975717          68.608685        0.995996021         -21.391315        0.995996021         -21.391315       0.0893975717          68.608685
162162791      0.0906231259         68.3020686        0.995885259        -21.6979315        0.995885259        -21.6979315       0.0906231259         68.3020686
164465116      0.0918460788         67.9955122        0.995773216        -22.0044878        0.995773216        -22.0044878       0.0918460788         67.9955122
166767442      0.0930663974         67.6890167        0.995659905        -22.3109833        0.995659905        -22.3109833       0.0930663974         67.6890167
169069767      0.0942840487         67.3825826        0.995545337        -22.6174175        0.995545337        -22.6174175       0.0942840487         67.3825826
171372093          0.095499         67.0762106        0.995429526        -22.9237895        0.995429526        -22.9237895           0.095499         67.0762106
173674419      0.0967112187         66.7699013        0.995312484        -23.2300988        0.995312484        -23.2300988       0.0967112187         66.7699013
175976744      0.0979206724         66.4636554        0.995194223        -23.5363447        0.995194223        -23.5363447       0.0979206724         66.4636554
178279070      0.0991273289         66.1574735        0.995074757        -23.8425266        0.995074757        -23.8425266       0.0991273289         66.1574735
180581395       0.100331156         65.8513562        0.994954099        -24.1486438        0.994954099        -24.1486438        0.100331156         65.8513562
182883721       0.101532122         65.5453042        0.994832261        -24.4546958        0.994832261        -24.4546958        0.101532122         65.5453042
185186047       0.102730194          65.239318        0.994709258         -24.760682        0.994709258         -24.760682        0.102730194          65.239318
187488372       0.103925342         64.9333983        0.994585101        -25.0666017        0.994585101        -25.0666017        0.103925342         64.9333983
189790698       0.105117534         64.6275457        0.994459805        -25.3724544        0.994459805        -25.3724544        0.105117534         64.6275457
192093023       0.106306738         64.3217606        0.994333383        -25.6782394        0.994333383        -25.6782394        0.106306738         64.3217606
194395349       0.107492924         64.0160438         0.99420585        -25.9839562         0.99420585        -25.9839562        0.107492924         64.0160438
196697674        0.10867606         63.7103958        0.994077217        -26.2896043        0.994077217        -26.2896043         0.10867606         63.7103958
199000000       0.109856115          63.404817        0.993947501         -26.595183        0.993947501         -26.595183        0.109856115          63.404817
201302326        0.11103306         63.0993082        0.993816713        -26.9006919        0.993816713        -26.9006919         0.11103306         63.0993082
203604651       0.112206863         62.7938698        0.993684869        -27.2061303        0.993684869        -27.2061303        0.112206863         62.7938698
205906977       0.113377495         62.4885023        0.993551983        -27.5114977        0.993551983        -27.5114977        0.113377495         62.4885023
208209302       0.114544924         62.1832064        0.993418069        -27.8167937        0.993418069        -27.8167937        0.114544924         62.1832064
210511628       0.115709122         61.8779824        0.993283141        -28.1220177        0.993283141        -28.1220177        0.115709122         61.8779824
212813953       0.116870059         61.5728309        0.993147214        -28.4271691        0.993147214        -28.4271691        0.116870059         61.5728309
215116279       0.118027704         61.2677525        0.993010303        -28.7322476        0.993010303        -28.7322476        0.118027704         61.2677525
217418605       0.119182029         60.9627475        0.992872421        -29.0372525        0.992872421        -29.0372525        0.119182029         60.9627475
219720930       0.120333004         60.6578166        0.992733584        -29.3421835        0.992733584        -29.3421835        0.120333004         60.6578166
222023256         0.1214806         60.3529601        0.992593806          -29.64704        0.992593806          -29.64704          0.1214806         60.3529601
224325581       0.122624788         60.0481785        0.992453103        -29.9518216        0.992453103        -29.9518216        0.122624788         60.0481785
226627907        0.12376554         59.7434723        0.992311489        -30.2565278        0.992311489        -30.2565278         0.12376554         59.7434723
228930233       0.124902827         59.4388419        0.992168979        -30.5611581        0.992168979        -30.5611581        0.124902827         59.4388419
231232558       0.126036621         59.1342878        0.992025589        -30.8657122        0.992025589        -30.8657122        0.126036621         59.1342878
233534884       0.127166893         58.8298104        0.991881334        -31.1701896        0.991881334        -31.1701896        0.127166893         58.8298104
235837209       0.128293616         58.5254101        0.991736229        -31.4745899        0.991736229        -31.4745899        0.128293616         58.5254101
238139535       0.129416762         58.2210873        0.991590289        -31.7789127        0.991590289        -31.7789127        0.129416762         58.2210873
240441860       0.130536303         57.9168425         0.99144353        -32.0831576         0.99144353        -32.0831576        0.130536303         57.9168425
242744186       0.131652211          57.612676        0.991295968        -32.3873241        0.991295968        -32.3873241        0.131652211          57.612676
245046512        0.13276446         57.3085882        0.991147617        -32.6914119        0.991147617        -32.6914119         0.13276446         57.3085882
247348837       0.133873023         57.0045794        0.990998493        -32.9954206        0.990998493        -32.9954206        0.133873023         57.0045794
249651163       0.134977872         56.7006501        0.990848613        -33.2993499        0.990848613        -33.2993499        0.134977872         56.7006501
251953488        0.13607898         56.3968006        0.990697992        -33.6031994        0.990697992        -33.6031994         0.13607898         56.3968006
254255814       0.137176322         56.0930313        0.990546645        -33.9069688        0.990546645        -33.9069688        0.137176322         56.0930313
256558140       0.138269871         55.7893424        0.990394589        -34.2106576        0.990394589        -34.2106576        0.138269871         55.7893424
258860465       0.139359601         55.4857344         0.99024184        -34.5142657         0.99024184        -34.5142657        0.139359601         55.4857344
261162791       0.140445485         55.1822075        0.990088413        -34.8177926        0.990088413        -34.8177926        0.140445485         55.1822075
263465116       0.141527499          54.878762        0.989934325        -35.1212381        0.989934325        -35.1212381        0.141527499          54.878762
265767442       0.142605616         54.5753983        0.989779591        -35.4246018        0.989779591        -35.4246018        0.142605616         54.5753983
268069767       0.143679811         54.2721166        0.989624228        -35.7278835        0.989624228        -35.7278835        0.143679811         54.2721166
270372093       0.144750059         53.9689172        0.989468251        -36.0310829        0.989468251        -36.0310829        0.144750059         53.9689172
272674419       0.145816334         53.6658004        0.989311678        -36.3341997        0.989311678        -36.3341997        0.145816334         53.6658004
274976744       0.146878613         53.3627664        0.989154524        -36.6372337        0.989154524        -36.6372337        0.146878613         53.3627664
277279070       0.147936869         53.0598155        0.988996806        -36.9401845        0.988996806        -36.9401845        0.147936869         53.0598155
279581395        0.14899108          52.756948         0.98883854        -37.2430521         0.98883854        -37.2430521         0.14899108          52.756948
281883721        0.15004122          52.454164        0.988679742         -37.545836        0.988679742         -37.545836         0.15004122          52.454164
284186047       0.151087266         52.1514639        0.988520429        -37.8485362        0.988520429        -37.8485362        0.151087266         52.1514639
286488372       0.152129192         51.8488477        0.988360617        -38.1511523        0.988360617        -38.1511523        0.152129192         51.8488477
288790698       0.153166977         51.5463158        0.988200322        -38.4536843        0.988200322        -38.4536843        0.153166977         51.5463158
291093023       0.154200596         51.2438683        0.988039562        -38.7561318        0.988039562        -38.7561318        0.154200596         51.2438683
293395349       0.155230026         50.9415053        0.987878352        -39.0584948        0.987878352        -39.0584948        0.155230026         50.9415053
295697674       0.156255243         50.6392271         0.98771671        -39.3607729         0.98771671        -39.3607729        0.156255243         50.6392271
298000000       0.157276225         50.3370339        0.987554651        -39.6629662        0.987554651        -39.6629662        0.157276225         50.3370339
300302326       0.158292949         50.0349258        0.987392193        -39.9650743        0.987392193        -39.9650743        0.158292949         50.0349258
302604651       0.159305392         49.7329028        0.987229351        -40.2670972        0.987229351        -40.2670972        0.159305392         49.7329028
304906977       0.160313532         49.4309653        0.987066143        -40.5690348        0.987066143        -40.5690348        0.160313532         49.4309653
307209302       0.161317346         49.1291133        0.986902586        -40.8708868        0.986902586        -40.8708868        0.161317346         49.1291133
309511628       0.162316813         48.8273468        0.986738695        -41.1726532        0.986738695        -41.1726532        0.162316813         48.8273468
311813953       0.163311911         48.5256661        0.986574488         -41.474334        0.986574488         -41.474334        0.163311911         48.5256661
314116279       0.164302617         48.2240712        0.986409981        -41.7759288        0.986409981        -41.7759288        0.164302617         48.2240712
316418605       0.165288911         47.9225623        0.986245191        -42.0774378        0.986245191        -42.0774378        0.165288911         47.9225623
318720930       0.166270771         47.6211393        0.986080134        -42.3788608        0.986080134        -42.3788608        0.166270771         47.6211393
321023256       0.167248176         47.3198023        0.985914828        -42.6801977        0.985914828        -42.6801977        0.167248176         47.3198023
323325581       0.168221105         47.0185515        0.985749288        -42.9814486        0.985749288        -42.9814486        0.168221105         47.0185515
325627907       0.169189538         46.7173868        0.985583533        -43.2826132        0.985583533        -43.2826132        0.169189538         46.7173868
327930233       0.170153452         46.4163084        0.985417578        -43.5836917        0.985417578        -43.5836917        0.170153452         46.4163084
330232558       0.171112829         46.1153161         0.98525144        -43.8846839         0.98525144        -43.8846839        0.171112829         46.1153161
332534884       0.172067648         45.8144102        0.985085136        -44.1855899        0.985085136        -44.1855899        0.172067648         45.8144102
334837209       0.173017889         45.5135904        0.984918682        -44.4864096        0.984918682        -44.4864096        0.173017889         45.5135904
337139535       0.173963532          45.212857        0.984752095        -44.7871431        0.984752095        -44.7871431        0.173963532          45.212857
339441860       0.174904558         44.9122098        0.984585393        -45.0877903        0.984585393        -45.0877903        0.174904558         44.9122098
341744186       0.175840946         44.6116488        0.984418591        -45.3883513        0.984418591        -45.3883513        0.175840946         44.6116488
344046512       0.176772678          44.311174        0.984251706         -45.688826        0.984251706         -45.688826        0.176772678          44.311174
346348837       0.177699734         44.0107854        0.984084755        -45.9892146        0.984084755        -45.9892146        0.177699734         44.0107854
348651163       0.178622095          43.710483        0.983917754        -46.2895171        0.983917754        -46.2895171        0.178622095          43.710483
350953488       0.179539743         43.4102665        0.983750721        -46.5897335        0.983750721        -46.5897335        0.179539743         43.4102665
353255814       0.180452659         43.1101361        0.983583671         -46.889864        0.983583671         -46.889864        0.180452659         43.1101361
355558140       0.181360824         42.8100916        0.983416621        -47.1899085        0.983416621        -47.1899085        0.181360824         42.8100916
357860465       0.182264221         42.5101329        0.983249589        -47.4898672        0.983249589        -47.4898672        0.182264221         42.5101329
360162791       0.183162831           42.21026        0.983082589        -47.7897401        0.983082589        -47.7897401        0.183162831           42.21026
362465116       0.184056636         41.9104727         0.98291564        -48.0895274         0.98291564        -48.0895274        0.184056636         41.9104727
364767442       0.184945618         41.6107709        0.982748757        -48.3892292        0.982748757        -48.3892292        0.184945618         41.6107709
367069767        0.18582976         41.3111545        0.982581956        -48.6888456        0.982581956        -48.6888456         0.18582976         41.3111545
369372093       0.186709045         41.0116234        0.982415255        -48.9883767        0.982415255        -48.9883767        0.186709045         41.0116234
371674419       0.187583454         40.7121773        0.982248669        -49.2878228        0.982248669        -49.2878228        0.187583454         40.7121773
373976744       0.188452972         40.4128163        0.982082215        -49.5871838        0.982082215        -49.5871838        0.188452972         40.4128163
376279070       0.189317581           40.11354         0.98191591        -49.8864601         0.98191591        -49.8864601        0.189317581           40.11354
378581395       0.190177265         39.8143484        0.981749768        -50.1856517        0.981749768        -50.1856517        0.190177265         39.8143484
380883721       0.191032006         39.5152412        0.981583808        -50.4847589        0.981583808        -50.4847589        0.191032006         39.5152412
383186047       0.191881789         39.2162183        0.981418045        -50.7837818        0.981418045        -50.7837818        0.191881789         39.2162183
385488372       0.192726597         38.9172794        0.981252495        -51.0827207        0.981252495        -51.0827207        0.192726597         38.9172794
387790698       0.193566415         38.6184244        0.981087174        -51.3815757        0.981087174        -51.3815757        0.193566415         38.6184244
390093023       0.194401225         38.3196531        0.980922099         -51.680347        0.980922099         -51.680347        0.194401225         38.3196531
392395349       0.195231013         38.0209651        0.980757285         -51.979035        0.980757285         -51.979035        0.195231013         38.0209651
394697674       0.196055764         37.7223603        0.980592748        -52.2776398        0.980592748        -52.2776398        0.196055764         37.7223603
397000000        0.19687546         37.4238384        0.980428505        -52.5761616        0.980428505        -52.5761616         0.19687546         37.4238384
399302326       0.197690088         37.1253993        0.980264571        -52.8746008        0.980264571        -52.8746008        0.197690088         37.1253993
401604651       0.198499632         36.8270425        0.980100962        -53.1729576        0.980100962        -53.1729576        0.198499632         36.8270425
403906977       0.199304077         36.5287678        0.979937694        -53.4712323        0.979937694        -53.4712323        0.199304077         36.5287678
406209302       0.200103409          36.230575        0.979774783        -53.7694251        0.979774783        -53.7694251        0.200103409          36.230575
408511628       0.200897613         35.9324638        0.979612244        -54.0675363        0.979612244        -54.0675363        0.200897613         35.9324638
410813953       0.201686673         35.6344338        0.979450094        -54.3655663        0.979450094        -54.3655663        0.201686673         35.6344338
413116279       0.202470577         35.3364848        0.979288346        -54.6635153        0.979288346        -54.6635153        0.202470577         35.3364848
415418605        0.20324931         35.0386165        0.979127018        -54.9613836        0.979127018        -54.9613836         0.20324931         35.0386165
417720930       0.204022858         34.7408284        0.978966125        -55.2591717        0.978966125        -55.2591717        0.204022858         34.7408284
420023256       0.204791206         34.4431203        0.978805681        -55.5568798        0.978805681        -55.5568798        0.204791206         34.4431203
422325581       0.205554342         34.1454919        0.978645703        -55.8545082        0.978645703        -55.8545082        0.205554342         34.1454919
424627907       0.206312252         33.8479427        0.978486206        -56.1520574        0.978486206        -56.1520574        0.206312252         33.8479427
426930233       0.207064922         33.5504725        0.978327204        -56.4495276        0.978327204        -56.4495276        0.207064922         33.5504725
429232558       0.207812339         33.2530808        0.978168713        -56.7469193        0.978168713        -56.7469193        0.207812339         33.2530808
431534884        0.20855449         32.9557673        0.978010749        -57.0442328        0.978010749        -57.0442328         0.20855449         32.9557673
433837209       0.209291361         32.6585316        0.977853325        -57.3414685        0.977853325        -57.3414685        0.209291361         32.6585316
436139535       0.210022942         32.3613732        0.977696458        -57.6386269        0.977696458        -57.6386269        0.210022942         32.3613732
438441860       0.210749217         32.0642919        0.977540162        -57.9357082        0.977540162        -57.9357082        0.210749217         32.0642919
440744186       0.211470176         31.7672871        0.977384451         -58.232713        0.977384451         -58.232713        0.211470176         31.7672871
443046512       0.212185805         31.4703585        0.977229341        -58.5296416        0.977229341        -58.5296416        0.212185805         31.4703585
445348837       0.212896092         31.1735056        0.977074846        -58.8264945        0.977074846        -58.8264945        0.212896092         31.1735056
447651163       0.213601026          30.876728         0.97692098        -59.1232721         0.97692098        -59.1232721        0.213601026          30.876728
449953488       0.214300593         30.5800252        0.976767759        -59.4199749        0.976767759        -59.4199749        0.214300593         30.5800252
452255814       0.214994784         30.2833968        0.976615197        -59.7166033        0.976615197        -59.7166033        0.214994784         30.2833968
454558140       0.215683585         29.9868424        0.976463308        -60.0131578        0.976463308        -60.0131578        0.215683585         29.9868424
456860465       0.216366985         29.6903614        0.976312106        -60.3096388        0.976312106        -60.3096388        0.216366985         29.6903614
459162791       0.217044972         29.3939533        0.976161605        -60.6060468        0.976161605        -60.6060468        0.217044972         29.3939533
461465116       0.217717536         29.0976178        0.976011821        -60.9023823        0.976011821        -60.9023823        0.217717536         29.0976178
463767442       0.218384666         28.8013543        0.975862766        -61.1986458        0.975862766        -61.1986458        0.218384666         28.8013543
466069767       0.219046349         28.5051622        0.975714455        -61.4948379        0.975714455        -61.4948379        0.219046349         28.5051622
468372093       0.219702576         28.2090412        0.975566901        -61.7909589        0.975566901        -61.7909589        0.219702576         28.2090412
470674419       0.220353336         27.9129906        0.975420118        -62.0870095        0.975420118        -62.0870095        0.220353336         27.9129906
472976744       0.220998617         27.6170099        0.975274121        -62.3829902        0.975274121        -62.3829902        0.220998617         27.6170099
475279070        0.22163841         27.3210987        0.975128922        -62.6789014        0.975128922        -62.6789014         0.22163841         27.3210987
477581395       0.222272704         27.0252563        0.974984536        -62.9747438        0.974984536        -62.9747438        0.222272704         27.0252563
479883721       0.222901488         26.7294823        0.974840975        -63.2705178        0.974840975        -63.2705178        0.222901488         26.7294823
482186047       0.223524753          26.433776        0.974698253        -63.5662241        0.974698253        -63.5662241        0.223524753          26.433776
484488372       0.224142489         26.1381369        0.974556384        -63.8618632        0.974556384        -63.8618632        0.224142489         26.1381369
486790698       0.224754685         25.8425644        0.974415379        -64.1574357        0.974415379        -64.1574357        0.224754685         25.8425644
489093023       0.225361333          25.547058        0.974275254        -64.4529421        0.974275254        -64.4529421        0.225361333          25.547058
491395349       0.225962421          25.251617        0.974136019        -64.7483831        0.974136019        -64.7483831        0.225962421          25.251617
493697674       0.226557942          24.956241        0.973997689        -65.0437592        0.973997689        -65.0437592        0.226557942          24.956241
496000000       0.227147884         24.6609291        0.973860277         -65.339071        0.973860277         -65.339071        0.227147884         24.6609291
498302326        0.22773224          24.365681        0.973723794        -65.6343192        0.973723794        -65.6343192         0.22773224          24.365681
500604651          0.228311         24.0704959        0.973588254        -65.9295043        0.973588254        -65.9295043           0.228311         24.0704959
502906977       0.228884154         23.7753732        0.973453668         -66.224627        0.973453668         -66.224627        0.228884154         23.7753732
505209302       0.229451694         23.4803123         0.97332005        -66.5196879         0.97332005        -66.5196879        0.229451694         23.4803123
507511628       0.230013611         23.1853125        0.973187412        -66.8146876        0.973187412        -66.8146876        0.230013611         23.1853125
509813953       0.230569896         22.8903733        0.973055766        -67.1096268        0.973055766        -67.1096268        0.230569896         22.8903733
512116279       0.231120541         22.5954939        0.972925123        -67.4045062        0.972925123        -67.4045062        0.231120541         22.5954939
514418605       0.231665537         22.3006738        0.972795497        -67.6993264        0.972795497        -67.6993264        0.231665537         22.3006738
516720930       0.232204876         22.0059122        0.972666899         -67.994088        0.972666899         -67.994088        0.232204876         22.0059122
519023256       0.232738549         21.7112084         0.97253934        -68.2887917         0.97253934        -68.2887917        0.232738549         21.7112084
521325581       0.233266549         21.4165619        0.972412833        -68.5834382        0.972412833        -68.5834382        0.233266549         21.4165619